
.Version 9.10.3 of ABINIT 
.(MPI version, prepared for a x86_64_linux_intel2021.6 computer) 

.Copyright (C) 1998-2022 ABINIT group . 
 ABINIT comes with ABSOLUTELY NO WARRANTY.
 It is free software, and you are welcome to redistribute it
 under certain conditions (GNU General Public License,
 see ~abinit/COPYING or http://www.gnu.org/copyleft/gpl.txt).

 ABINIT is a project of the Universite Catholique de Louvain,
 Corning Inc. and other collaborators, see ~abinit/doc/developers/contributors.txt .
 Please read https://docs.abinit.org/theory/acknowledgments for suggested
 acknowledgments of the ABINIT effort.
 For more information, see https://www.abinit.org .

.Starting date : Wed 23 Apr 2025.
- ( at 07h04 )
  
- input  file    -> tbase1_2.abi
- output file    -> tbase1_2.abo
- root for input  files -> tbase1_2i
- root for output files -> tbase1_2o
 
 
 DATASET    1 : space group P4/m m m (#123); Bravais tP (primitive tetrag.)
================================================================================
 Values of the parameters that define the memory need for DATASET  1.
     intxc =       0    ionmov =       0      iscf =       7    lmnmax =       3
     lnmax =       3     mgfft =      30  mpssoang =       2    mqgrid =    3001
     natom =       2  nloc_mem =       1    nspden =       1   nspinor =       1
    nsppol =       1      nsym =      16    n1xccc =       0    ntypat =       1
    occopt =       1   xclevel =       2
-    mband =           1        mffmem =           1         mkmem =           1
       mpw =         752          nfft =       27000          nkpt =           1
================================================================================
P This job should need less than                       8.760 Mbytes of memory.
  Rough estimation (10% accuracy) of disk space for files :
_ WF disk file :      0.013 Mbytes ; DEN or POT disk file :      0.208 Mbytes.
================================================================================
 
 
 DATASET    2 : space group P4/m m m (#123); Bravais tP (primitive tetrag.)
================================================================================
 Values of the parameters that define the memory need for DATASET  2.
     intxc =       0    ionmov =       0      iscf =       7    lmnmax =       3
     lnmax =       3     mgfft =      30  mpssoang =       2    mqgrid =    3001
     natom =       2  nloc_mem =       1    nspden =       1   nspinor =       1
    nsppol =       1      nsym =      16    n1xccc =       0    ntypat =       1
    occopt =       1   xclevel =       2
-    mband =           1        mffmem =           1         mkmem =           1
       mpw =         752          nfft =       27000          nkpt =           1
================================================================================
P This job should need less than                       8.760 Mbytes of memory.
  Rough estimation (10% accuracy) of disk space for files :
_ WF disk file :      0.013 Mbytes ; DEN or POT disk file :      0.208 Mbytes.
================================================================================
 
 
 DATASET    3 : space group P4/m m m (#123); Bravais tP (primitive tetrag.)
================================================================================
 Values of the parameters that define the memory need for DATASET  3.
     intxc =       0    ionmov =       0      iscf =       7    lmnmax =       3
     lnmax =       3     mgfft =      30  mpssoang =       2    mqgrid =    3001
     natom =       2  nloc_mem =       1    nspden =       1   nspinor =       1
    nsppol =       1      nsym =      16    n1xccc =       0    ntypat =       1
    occopt =       1   xclevel =       2
-    mband =           1        mffmem =           1         mkmem =           1
       mpw =         752          nfft =       27000          nkpt =           1
================================================================================
P This job should need less than                       8.760 Mbytes of memory.
  Rough estimation (10% accuracy) of disk space for files :
_ WF disk file :      0.013 Mbytes ; DEN or POT disk file :      0.208 Mbytes.
================================================================================
 
 
 DATASET    4 : space group P4/m m m (#123); Bravais tP (primitive tetrag.)
================================================================================
 Values of the parameters that define the memory need for DATASET  4.
     intxc =       0    ionmov =       0      iscf =       7    lmnmax =       3
     lnmax =       3     mgfft =      30  mpssoang =       2    mqgrid =    3001
     natom =       2  nloc_mem =       1    nspden =       1   nspinor =       1
    nsppol =       1      nsym =      16    n1xccc =       0    ntypat =       1
    occopt =       1   xclevel =       2
-    mband =           1        mffmem =           1         mkmem =           1
       mpw =         752          nfft =       27000          nkpt =           1
================================================================================
P This job should need less than                       8.760 Mbytes of memory.
  Rough estimation (10% accuracy) of disk space for files :
_ WF disk file :      0.013 Mbytes ; DEN or POT disk file :      0.208 Mbytes.
================================================================================
 
 
 DATASET    5 : space group P4/m m m (#123); Bravais tP (primitive tetrag.)
================================================================================
 Values of the parameters that define the memory need for DATASET  5.
     intxc =       0    ionmov =       0      iscf =       7    lmnmax =       3
     lnmax =       3     mgfft =      30  mpssoang =       2    mqgrid =    3001
     natom =       2  nloc_mem =       1    nspden =       1   nspinor =       1
    nsppol =       1      nsym =      16    n1xccc =       0    ntypat =       1
    occopt =       1   xclevel =       2
-    mband =           1        mffmem =           1         mkmem =           1
       mpw =         752          nfft =       27000          nkpt =           1
================================================================================
P This job should need less than                       8.760 Mbytes of memory.
  Rough estimation (10% accuracy) of disk space for files :
_ WF disk file :      0.013 Mbytes ; DEN or POT disk file :      0.208 Mbytes.
================================================================================
 
 
 DATASET    6 : space group P4/m m m (#123); Bravais tP (primitive tetrag.)
================================================================================
 Values of the parameters that define the memory need for DATASET  6.
     intxc =       0    ionmov =       0      iscf =       7    lmnmax =       3
     lnmax =       3     mgfft =      30  mpssoang =       2    mqgrid =    3001
     natom =       2  nloc_mem =       1    nspden =       1   nspinor =       1
    nsppol =       1      nsym =      16    n1xccc =       0    ntypat =       1
    occopt =       1   xclevel =       2
-    mband =           1        mffmem =           1         mkmem =           1
       mpw =         752          nfft =       27000          nkpt =           1
================================================================================
P This job should need less than                       8.760 Mbytes of memory.
  Rough estimation (10% accuracy) of disk space for files :
_ WF disk file :      0.013 Mbytes ; DEN or POT disk file :      0.208 Mbytes.
================================================================================
 
 
 DATASET    7 : space group P4/m m m (#123); Bravais tP (primitive tetrag.)
================================================================================
 Values of the parameters that define the memory need for DATASET  7.
     intxc =       0    ionmov =       0      iscf =       7    lmnmax =       3
     lnmax =       3     mgfft =      30  mpssoang =       2    mqgrid =    3001
     natom =       2  nloc_mem =       1    nspden =       1   nspinor =       1
    nsppol =       1      nsym =      16    n1xccc =       0    ntypat =       1
    occopt =       1   xclevel =       2
-    mband =           1        mffmem =           1         mkmem =           1
       mpw =         752          nfft =       27000          nkpt =           1
================================================================================
P This job should need less than                       8.760 Mbytes of memory.
  Rough estimation (10% accuracy) of disk space for files :
_ WF disk file :      0.013 Mbytes ; DEN or POT disk file :      0.208 Mbytes.
================================================================================
 
 
 DATASET    8 : space group P4/m m m (#123); Bravais tP (primitive tetrag.)
================================================================================
 Values of the parameters that define the memory need for DATASET  8.
     intxc =       0    ionmov =       0      iscf =       7    lmnmax =       3
     lnmax =       3     mgfft =      30  mpssoang =       2    mqgrid =    3001
     natom =       2  nloc_mem =       1    nspden =       1   nspinor =       1
    nsppol =       1      nsym =      16    n1xccc =       0    ntypat =       1
    occopt =       1   xclevel =       2
-    mband =           1        mffmem =           1         mkmem =           1
       mpw =         752          nfft =       27000          nkpt =           1
================================================================================
P This job should need less than                       8.760 Mbytes of memory.
  Rough estimation (10% accuracy) of disk space for files :
_ WF disk file :      0.013 Mbytes ; DEN or POT disk file :      0.208 Mbytes.
================================================================================
 
 
 DATASET    9 : space group P4/m m m (#123); Bravais tP (primitive tetrag.)
================================================================================
 Values of the parameters that define the memory need for DATASET  9.
     intxc =       0    ionmov =       0      iscf =       7    lmnmax =       3
     lnmax =       3     mgfft =      30  mpssoang =       2    mqgrid =    3001
     natom =       2  nloc_mem =       1    nspden =       1   nspinor =       1
    nsppol =       1      nsym =      16    n1xccc =       0    ntypat =       1
    occopt =       1   xclevel =       2
-    mband =           1        mffmem =           1         mkmem =           1
       mpw =         752          nfft =       27000          nkpt =           1
================================================================================
P This job should need less than                       8.760 Mbytes of memory.
  Rough estimation (10% accuracy) of disk space for files :
_ WF disk file :      0.013 Mbytes ; DEN or POT disk file :      0.208 Mbytes.
================================================================================
 
 
 DATASET   10 : space group P4/m m m (#123); Bravais tP (primitive tetrag.)
================================================================================
 Values of the parameters that define the memory need for DATASET 10.
     intxc =       0    ionmov =       0      iscf =       7    lmnmax =       3
     lnmax =       3     mgfft =      30  mpssoang =       2    mqgrid =    3001
     natom =       2  nloc_mem =       1    nspden =       1   nspinor =       1
    nsppol =       1      nsym =      16    n1xccc =       0    ntypat =       1
    occopt =       1   xclevel =       2
-    mband =           1        mffmem =           1         mkmem =           1
       mpw =         752          nfft =       27000          nkpt =           1
================================================================================
P This job should need less than                       8.760 Mbytes of memory.
  Rough estimation (10% accuracy) of disk space for files :
_ WF disk file :      0.013 Mbytes ; DEN or POT disk file :      0.208 Mbytes.
================================================================================
 
 
 DATASET   11 : space group P4/m m m (#123); Bravais tP (primitive tetrag.)
================================================================================
 Values of the parameters that define the memory need for DATASET 11.
     intxc =       0    ionmov =       0      iscf =       7    lmnmax =       3
     lnmax =       3     mgfft =      30  mpssoang =       2    mqgrid =    3001
     natom =       2  nloc_mem =       1    nspden =       1   nspinor =       1
    nsppol =       1      nsym =      16    n1xccc =       0    ntypat =       1
    occopt =       1   xclevel =       2
-    mband =           1        mffmem =           1         mkmem =           1
       mpw =         752          nfft =       27000          nkpt =           1
================================================================================
P This job should need less than                       8.760 Mbytes of memory.
  Rough estimation (10% accuracy) of disk space for files :
_ WF disk file :      0.013 Mbytes ; DEN or POT disk file :      0.208 Mbytes.
================================================================================
 
 
 DATASET   12 : space group P4/m m m (#123); Bravais tP (primitive tetrag.)
================================================================================
 Values of the parameters that define the memory need for DATASET 12.
     intxc =       0    ionmov =       0      iscf =       7    lmnmax =       3
     lnmax =       3     mgfft =      30  mpssoang =       2    mqgrid =    3001
     natom =       2  nloc_mem =       1    nspden =       1   nspinor =       1
    nsppol =       1      nsym =      16    n1xccc =       0    ntypat =       1
    occopt =       1   xclevel =       2
-    mband =           1        mffmem =           1         mkmem =           1
       mpw =         752          nfft =       27000          nkpt =           1
================================================================================
P This job should need less than                       8.760 Mbytes of memory.
  Rough estimation (10% accuracy) of disk space for files :
_ WF disk file :      0.013 Mbytes ; DEN or POT disk file :      0.208 Mbytes.
================================================================================
 
 
 DATASET   13 : space group P4/m m m (#123); Bravais tP (primitive tetrag.)
================================================================================
 Values of the parameters that define the memory need for DATASET 13.
     intxc =       0    ionmov =       0      iscf =       7    lmnmax =       3
     lnmax =       3     mgfft =      30  mpssoang =       2    mqgrid =    3001
     natom =       2  nloc_mem =       1    nspden =       1   nspinor =       1
    nsppol =       1      nsym =      16    n1xccc =       0    ntypat =       1
    occopt =       1   xclevel =       2
-    mband =           1        mffmem =           1         mkmem =           1
       mpw =         752          nfft =       27000          nkpt =           1
================================================================================
P This job should need less than                       8.760 Mbytes of memory.
  Rough estimation (10% accuracy) of disk space for files :
_ WF disk file :      0.013 Mbytes ; DEN or POT disk file :      0.208 Mbytes.
================================================================================
 
 
 DATASET   14 : space group P4/m m m (#123); Bravais tP (primitive tetrag.)
================================================================================
 Values of the parameters that define the memory need for DATASET 14.
     intxc =       0    ionmov =       0      iscf =       7    lmnmax =       3
     lnmax =       3     mgfft =      30  mpssoang =       2    mqgrid =    3001
     natom =       2  nloc_mem =       1    nspden =       1   nspinor =       1
    nsppol =       1      nsym =      16    n1xccc =       0    ntypat =       1
    occopt =       1   xclevel =       2
-    mband =           1        mffmem =           1         mkmem =           1
       mpw =         752          nfft =       27000          nkpt =           1
================================================================================
P This job should need less than                       8.760 Mbytes of memory.
  Rough estimation (10% accuracy) of disk space for files :
_ WF disk file :      0.013 Mbytes ; DEN or POT disk file :      0.208 Mbytes.
================================================================================
 
 
 DATASET   15 : space group P4/m m m (#123); Bravais tP (primitive tetrag.)
================================================================================
 Values of the parameters that define the memory need for DATASET 15.
     intxc =       0    ionmov =       0      iscf =       7    lmnmax =       3
     lnmax =       3     mgfft =      30  mpssoang =       2    mqgrid =    3001
     natom =       2  nloc_mem =       1    nspden =       1   nspinor =       1
    nsppol =       1      nsym =      16    n1xccc =       0    ntypat =       1
    occopt =       1   xclevel =       2
-    mband =           1        mffmem =           1         mkmem =           1
       mpw =         752          nfft =       27000          nkpt =           1
================================================================================
P This job should need less than                       8.760 Mbytes of memory.
  Rough estimation (10% accuracy) of disk space for files :
_ WF disk file :      0.013 Mbytes ; DEN or POT disk file :      0.208 Mbytes.
================================================================================
 
 
 DATASET   16 : space group P4/m m m (#123); Bravais tP (primitive tetrag.)
================================================================================
 Values of the parameters that define the memory need for DATASET 16.
     intxc =       0    ionmov =       0      iscf =       7    lmnmax =       3
     lnmax =       3     mgfft =      30  mpssoang =       2    mqgrid =    3001
     natom =       2  nloc_mem =       1    nspden =       1   nspinor =       1
    nsppol =       1      nsym =      16    n1xccc =       0    ntypat =       1
    occopt =       1   xclevel =       2
-    mband =           1        mffmem =           1         mkmem =           1
       mpw =         752          nfft =       27000          nkpt =           1
================================================================================
P This job should need less than                       8.760 Mbytes of memory.
  Rough estimation (10% accuracy) of disk space for files :
_ WF disk file :      0.013 Mbytes ; DEN or POT disk file :      0.208 Mbytes.
================================================================================
 
 
 DATASET   17 : space group P4/m m m (#123); Bravais tP (primitive tetrag.)
================================================================================
 Values of the parameters that define the memory need for DATASET 17.
     intxc =       0    ionmov =       0      iscf =       7    lmnmax =       3
     lnmax =       3     mgfft =      30  mpssoang =       2    mqgrid =    3001
     natom =       2  nloc_mem =       1    nspden =       1   nspinor =       1
    nsppol =       1      nsym =      16    n1xccc =       0    ntypat =       1
    occopt =       1   xclevel =       2
-    mband =           1        mffmem =           1         mkmem =           1
       mpw =         752          nfft =       27000          nkpt =           1
================================================================================
P This job should need less than                       8.760 Mbytes of memory.
  Rough estimation (10% accuracy) of disk space for files :
_ WF disk file :      0.013 Mbytes ; DEN or POT disk file :      0.208 Mbytes.
================================================================================
 
 
 DATASET   18 : space group P4/m m m (#123); Bravais tP (primitive tetrag.)
================================================================================
 Values of the parameters that define the memory need for DATASET 18.
     intxc =       0    ionmov =       0      iscf =       7    lmnmax =       3
     lnmax =       3     mgfft =      30  mpssoang =       2    mqgrid =    3001
     natom =       2  nloc_mem =       1    nspden =       1   nspinor =       1
    nsppol =       1      nsym =      16    n1xccc =       0    ntypat =       1
    occopt =       1   xclevel =       2
-    mband =           1        mffmem =           1         mkmem =           1
       mpw =         752          nfft =       27000          nkpt =           1
================================================================================
P This job should need less than                       8.760 Mbytes of memory.
  Rough estimation (10% accuracy) of disk space for files :
_ WF disk file :      0.013 Mbytes ; DEN or POT disk file :      0.208 Mbytes.
================================================================================
 
 
 DATASET   19 : space group P4/m m m (#123); Bravais tP (primitive tetrag.)
================================================================================
 Values of the parameters that define the memory need for DATASET 19.
     intxc =       0    ionmov =       0      iscf =       7    lmnmax =       3
     lnmax =       3     mgfft =      30  mpssoang =       2    mqgrid =    3001
     natom =       2  nloc_mem =       1    nspden =       1   nspinor =       1
    nsppol =       1      nsym =      16    n1xccc =       0    ntypat =       1
    occopt =       1   xclevel =       2
-    mband =           1        mffmem =           1         mkmem =           1
       mpw =         752          nfft =       27000          nkpt =           1
================================================================================
P This job should need less than                       8.760 Mbytes of memory.
  Rough estimation (10% accuracy) of disk space for files :
_ WF disk file :      0.013 Mbytes ; DEN or POT disk file :      0.208 Mbytes.
================================================================================
 
 
 DATASET   20 : space group P4/m m m (#123); Bravais tP (primitive tetrag.)
================================================================================
 Values of the parameters that define the memory need for DATASET 20.
     intxc =       0    ionmov =       0      iscf =       7    lmnmax =       3
     lnmax =       3     mgfft =      30  mpssoang =       2    mqgrid =    3001
     natom =       2  nloc_mem =       1    nspden =       1   nspinor =       1
    nsppol =       1      nsym =      16    n1xccc =       0    ntypat =       1
    occopt =       1   xclevel =       2
-    mband =           1        mffmem =           1         mkmem =           1
       mpw =         752          nfft =       27000          nkpt =           1
================================================================================
P This job should need less than                       8.760 Mbytes of memory.
  Rough estimation (10% accuracy) of disk space for files :
_ WF disk file :      0.013 Mbytes ; DEN or POT disk file :      0.208 Mbytes.
================================================================================
 
 
 DATASET   21 : space group P4/m m m (#123); Bravais tP (primitive tetrag.)
================================================================================
 Values of the parameters that define the memory need for DATASET 21.
     intxc =       0    ionmov =       0      iscf =       7    lmnmax =       3
     lnmax =       3     mgfft =      30  mpssoang =       2    mqgrid =    3001
     natom =       2  nloc_mem =       1    nspden =       1   nspinor =       1
    nsppol =       1      nsym =      16    n1xccc =       0    ntypat =       1
    occopt =       1   xclevel =       2
-    mband =           1        mffmem =           1         mkmem =           1
       mpw =         752          nfft =       27000          nkpt =           1
================================================================================
P This job should need less than                       8.760 Mbytes of memory.
  Rough estimation (10% accuracy) of disk space for files :
_ WF disk file :      0.013 Mbytes ; DEN or POT disk file :      0.208 Mbytes.
================================================================================
 
--------------------------------------------------------------------------------
------------- Echo of variables that govern the present computation ------------
--------------------------------------------------------------------------------
-
- outvars: echo of selected default values                                      
-   iomode0 =  0 , fftalg0 =512 , wfoptalg0 =  0
-
- outvars: echo of global parameters not present in the input file              
-  max_nthreads =    0
-
 -outvars: echo values of preprocessed input variables --------
            acell      1.0000000000E+01  1.0000000000E+01  1.0000000000E+01 Bohr
              amu      1.00794000E+00
           diemac      2.00000000E+00
             ecut      1.00000000E+01 Hartree
-          fftalg         512
           getwfk          -1
           istwfk        2
              ixc          11
           jdtset        1    2    3    4    5    6    7    8    9   10
                        11   12   13   14   15   16   17   18   19   20
                        21
           kptopt           0
P           mkmem           1
            natom           2
            nband           1
           ndtset          21
            ngfft          30      30      30
             nkpt           1
            nstep          10
             nsym          16
           ntypat           1
              occ      2.000000
          spgroup         123
           symrel      1  0  0   0  1  0   0  0  1      -1  0  0   0 -1  0   0  0 -1
                      -1  0  0   0  1  0   0  0 -1       1  0  0   0 -1  0   0  0  1
                      -1  0  0   0 -1  0   0  0  1       1  0  0   0  1  0   0  0 -1
                       1  0  0   0 -1  0   0  0 -1      -1  0  0   0  1  0   0  0  1
                       1  0  0   0  0  1   0  1  0      -1  0  0   0  0 -1   0 -1  0
                      -1  0  0   0  0  1   0 -1  0       1  0  0   0  0 -1   0  1  0
                      -1  0  0   0  0 -1   0  1  0       1  0  0   0  0  1   0 -1  0
                       1  0  0   0  0 -1   0 -1  0      -1  0  0   0  0  1   0  1  0
           toldfe      1.00000000E-06 Hartree
            typat      1  1
           xangst1    -2.6458860429E-01  0.0000000000E+00  0.0000000000E+00
                       2.6458860429E-01  0.0000000000E+00  0.0000000000E+00
           xangst2    -2.7781803451E-01  0.0000000000E+00  0.0000000000E+00
                       2.7781803451E-01  0.0000000000E+00  0.0000000000E+00
           xangst3    -2.9104746472E-01  0.0000000000E+00  0.0000000000E+00
                       2.9104746472E-01  0.0000000000E+00  0.0000000000E+00
           xangst4    -3.0427689494E-01  0.0000000000E+00  0.0000000000E+00
                       3.0427689494E-01  0.0000000000E+00  0.0000000000E+00
           xangst5    -3.1750632515E-01  0.0000000000E+00  0.0000000000E+00
                       3.1750632515E-01  0.0000000000E+00  0.0000000000E+00
           xangst6    -3.3073575537E-01  0.0000000000E+00  0.0000000000E+00
                       3.3073575537E-01  0.0000000000E+00  0.0000000000E+00
           xangst7    -3.4396518558E-01  0.0000000000E+00  0.0000000000E+00
                       3.4396518558E-01  0.0000000000E+00  0.0000000000E+00
           xangst8    -3.5719461580E-01  0.0000000000E+00  0.0000000000E+00
                       3.5719461580E-01  0.0000000000E+00  0.0000000000E+00
           xangst9    -3.7042404601E-01  0.0000000000E+00  0.0000000000E+00
                       3.7042404601E-01  0.0000000000E+00  0.0000000000E+00
           xangst10   -3.8365347623E-01  0.0000000000E+00  0.0000000000E+00
                       3.8365347623E-01  0.0000000000E+00  0.0000000000E+00
           xangst11   -3.9688290644E-01  0.0000000000E+00  0.0000000000E+00
                       3.9688290644E-01  0.0000000000E+00  0.0000000000E+00
           xangst12   -4.1011233666E-01  0.0000000000E+00  0.0000000000E+00
                       4.1011233666E-01  0.0000000000E+00  0.0000000000E+00
           xangst13   -4.2334176687E-01  0.0000000000E+00  0.0000000000E+00
                       4.2334176687E-01  0.0000000000E+00  0.0000000000E+00
           xangst14   -4.3657119709E-01  0.0000000000E+00  0.0000000000E+00
                       4.3657119709E-01  0.0000000000E+00  0.0000000000E+00
           xangst15   -4.4980062730E-01  0.0000000000E+00  0.0000000000E+00
                       4.4980062730E-01  0.0000000000E+00  0.0000000000E+00
           xangst16   -4.6303005752E-01  0.0000000000E+00  0.0000000000E+00
                       4.6303005752E-01  0.0000000000E+00  0.0000000000E+00
           xangst17   -4.7625948773E-01  0.0000000000E+00  0.0000000000E+00
                       4.7625948773E-01  0.0000000000E+00  0.0000000000E+00
           xangst18   -4.8948891795E-01  0.0000000000E+00  0.0000000000E+00
                       4.8948891795E-01  0.0000000000E+00  0.0000000000E+00
           xangst19   -5.0271834816E-01  0.0000000000E+00  0.0000000000E+00
                       5.0271834816E-01  0.0000000000E+00  0.0000000000E+00
           xangst20   -5.1594777838E-01  0.0000000000E+00  0.0000000000E+00
                       5.1594777838E-01  0.0000000000E+00  0.0000000000E+00
           xangst21   -5.2917720859E-01  0.0000000000E+00  0.0000000000E+00
                       5.2917720859E-01  0.0000000000E+00  0.0000000000E+00
            xcart1    -5.0000000000E-01  0.0000000000E+00  0.0000000000E+00
                       5.0000000000E-01  0.0000000000E+00  0.0000000000E+00
            xcart2    -5.2500000000E-01  0.0000000000E+00  0.0000000000E+00
                       5.2500000000E-01  0.0000000000E+00  0.0000000000E+00
            xcart3    -5.5000000000E-01  0.0000000000E+00  0.0000000000E+00
                       5.5000000000E-01  0.0000000000E+00  0.0000000000E+00
            xcart4    -5.7500000000E-01  0.0000000000E+00  0.0000000000E+00
                       5.7500000000E-01  0.0000000000E+00  0.0000000000E+00
            xcart5    -6.0000000000E-01  0.0000000000E+00  0.0000000000E+00
                       6.0000000000E-01  0.0000000000E+00  0.0000000000E+00
            xcart6    -6.2500000000E-01  0.0000000000E+00  0.0000000000E+00
                       6.2500000000E-01  0.0000000000E+00  0.0000000000E+00
            xcart7    -6.5000000000E-01  0.0000000000E+00  0.0000000000E+00
                       6.5000000000E-01  0.0000000000E+00  0.0000000000E+00
            xcart8    -6.7500000000E-01  0.0000000000E+00  0.0000000000E+00
                       6.7500000000E-01  0.0000000000E+00  0.0000000000E+00
            xcart9    -7.0000000000E-01  0.0000000000E+00  0.0000000000E+00
                       7.0000000000E-01  0.0000000000E+00  0.0000000000E+00
            xcart10   -7.2500000000E-01  0.0000000000E+00  0.0000000000E+00
                       7.2500000000E-01  0.0000000000E+00  0.0000000000E+00
            xcart11   -7.5000000000E-01  0.0000000000E+00  0.0000000000E+00
                       7.5000000000E-01  0.0000000000E+00  0.0000000000E+00
            xcart12   -7.7500000000E-01  0.0000000000E+00  0.0000000000E+00
                       7.7500000000E-01  0.0000000000E+00  0.0000000000E+00
            xcart13   -8.0000000000E-01  0.0000000000E+00  0.0000000000E+00
                       8.0000000000E-01  0.0000000000E+00  0.0000000000E+00
            xcart14   -8.2500000000E-01  0.0000000000E+00  0.0000000000E+00
                       8.2500000000E-01  0.0000000000E+00  0.0000000000E+00
            xcart15   -8.5000000000E-01  0.0000000000E+00  0.0000000000E+00
                       8.5000000000E-01  0.0000000000E+00  0.0000000000E+00
            xcart16   -8.7500000000E-01  0.0000000000E+00  0.0000000000E+00
                       8.7500000000E-01  0.0000000000E+00  0.0000000000E+00
            xcart17   -9.0000000000E-01  0.0000000000E+00  0.0000000000E+00
                       9.0000000000E-01  0.0000000000E+00  0.0000000000E+00
            xcart18   -9.2500000000E-01  0.0000000000E+00  0.0000000000E+00
                       9.2500000000E-01  0.0000000000E+00  0.0000000000E+00
            xcart19   -9.5000000000E-01  0.0000000000E+00  0.0000000000E+00
                       9.5000000000E-01  0.0000000000E+00  0.0000000000E+00
            xcart20   -9.7500000000E-01  0.0000000000E+00  0.0000000000E+00
                       9.7500000000E-01  0.0000000000E+00  0.0000000000E+00
            xcart21   -1.0000000000E+00  0.0000000000E+00  0.0000000000E+00
                       1.0000000000E+00  0.0000000000E+00  0.0000000000E+00
             xred1    -5.0000000000E-02  0.0000000000E+00  0.0000000000E+00
                       5.0000000000E-02  0.0000000000E+00  0.0000000000E+00
             xred2    -5.2500000000E-02  0.0000000000E+00  0.0000000000E+00
                       5.2500000000E-02  0.0000000000E+00  0.0000000000E+00
             xred3    -5.5000000000E-02  0.0000000000E+00  0.0000000000E+00
                       5.5000000000E-02  0.0000000000E+00  0.0000000000E+00
             xred4    -5.7500000000E-02  0.0000000000E+00  0.0000000000E+00
                       5.7500000000E-02  0.0000000000E+00  0.0000000000E+00
             xred5    -6.0000000000E-02  0.0000000000E+00  0.0000000000E+00
                       6.0000000000E-02  0.0000000000E+00  0.0000000000E+00
             xred6    -6.2500000000E-02  0.0000000000E+00  0.0000000000E+00
                       6.2500000000E-02  0.0000000000E+00  0.0000000000E+00
             xred7    -6.5000000000E-02  0.0000000000E+00  0.0000000000E+00
                       6.5000000000E-02  0.0000000000E+00  0.0000000000E+00
             xred8    -6.7500000000E-02  0.0000000000E+00  0.0000000000E+00
                       6.7500000000E-02  0.0000000000E+00  0.0000000000E+00
             xred9    -7.0000000000E-02  0.0000000000E+00  0.0000000000E+00
                       7.0000000000E-02  0.0000000000E+00  0.0000000000E+00
             xred10   -7.2500000000E-02  0.0000000000E+00  0.0000000000E+00
                       7.2500000000E-02  0.0000000000E+00  0.0000000000E+00
             xred11   -7.5000000000E-02  0.0000000000E+00  0.0000000000E+00
                       7.5000000000E-02  0.0000000000E+00  0.0000000000E+00
             xred12   -7.7500000000E-02  0.0000000000E+00  0.0000000000E+00
                       7.7500000000E-02  0.0000000000E+00  0.0000000000E+00
             xred13   -8.0000000000E-02  0.0000000000E+00  0.0000000000E+00
                       8.0000000000E-02  0.0000000000E+00  0.0000000000E+00
             xred14   -8.2500000000E-02  0.0000000000E+00  0.0000000000E+00
                       8.2500000000E-02  0.0000000000E+00  0.0000000000E+00
             xred15   -8.5000000000E-02  0.0000000000E+00  0.0000000000E+00
                       8.5000000000E-02  0.0000000000E+00  0.0000000000E+00
             xred16   -8.7500000000E-02  0.0000000000E+00  0.0000000000E+00
                       8.7500000000E-02  0.0000000000E+00  0.0000000000E+00
             xred17   -9.0000000000E-02  0.0000000000E+00  0.0000000000E+00
                       9.0000000000E-02  0.0000000000E+00  0.0000000000E+00
             xred18   -9.2500000000E-02  0.0000000000E+00  0.0000000000E+00
                       9.2500000000E-02  0.0000000000E+00  0.0000000000E+00
             xred19   -9.5000000000E-02  0.0000000000E+00  0.0000000000E+00
                       9.5000000000E-02  0.0000000000E+00  0.0000000000E+00
             xred20   -9.7500000000E-02  0.0000000000E+00  0.0000000000E+00
                       9.7500000000E-02  0.0000000000E+00  0.0000000000E+00
             xred21   -1.0000000000E-01  0.0000000000E+00  0.0000000000E+00
                       1.0000000000E-01  0.0000000000E+00  0.0000000000E+00
            znucl        1.00000
 
================================================================================
 
 chkinp: Checking input parameters for consistency, jdtset=   1.
 
 chkinp: Checking input parameters for consistency, jdtset=   2.
 
 chkinp: Checking input parameters for consistency, jdtset=   3.
 
 chkinp: Checking input parameters for consistency, jdtset=   4.
 
 chkinp: Checking input parameters for consistency, jdtset=   5.
 
 chkinp: Checking input parameters for consistency, jdtset=   6.
 
 chkinp: Checking input parameters for consistency, jdtset=   7.
 
 chkinp: Checking input parameters for consistency, jdtset=   8.
 
 chkinp: Checking input parameters for consistency, jdtset=   9.
 
 chkinp: Checking input parameters for consistency, jdtset=  10.
 
 chkinp: Checking input parameters for consistency, jdtset=  11.
 
 chkinp: Checking input parameters for consistency, jdtset=  12.
 
 chkinp: Checking input parameters for consistency, jdtset=  13.
 
 chkinp: Checking input parameters for consistency, jdtset=  14.
 
 chkinp: Checking input parameters for consistency, jdtset=  15.
 
 chkinp: Checking input parameters for consistency, jdtset=  16.
 
 chkinp: Checking input parameters for consistency, jdtset=  17.
 
 chkinp: Checking input parameters for consistency, jdtset=  18.
 
 chkinp: Checking input parameters for consistency, jdtset=  19.
 
 chkinp: Checking input parameters for consistency, jdtset=  20.
 
 chkinp: Checking input parameters for consistency, jdtset=  21.
 
================================================================================
== DATASET  1 ==================================================================
-   mpi_nproc: 1, omp_nthreads: -1 (-1 if OMP is not activated)
 

--- !DatasetInfo
iteration_state: {dtset: 1, }
dimensions: {natom: 2, nkpt: 1, mband: 1, nsppol: 1, nspinor: 1, nspden: 1, mpw: 752, }
cutoff_energies: {ecut:  10.0, pawecutdg:  -1.0, }
electrons: {nelect:   2.00000000E+00, charge:   0.00000000E+00, occopt:   1.00000000E+00, tsmear:   1.00000000E-02, }
meta: {optdriver: 0, ionmov: 0, optcell: 0, iscf: 7, paral_kgb: 0, }
...

 Exchange-correlation functional for the present dataset will be:
  GGA: Perdew-Burke-Ernzerhof functional - ixc=11
 Citation for XC functional:
  J.P.Perdew, K.Burke, M.Ernzerhof, PRL 77, 3865 (1996)
 
 Real(R)+Recip(G) space primitive vectors, cartesian coordinates (Bohr,Bohr^-1):
 R(1)= 10.0000000  0.0000000  0.0000000  G(1)=  0.1000000  0.0000000  0.0000000
 R(2)=  0.0000000 10.0000000  0.0000000  G(2)=  0.0000000  0.1000000  0.0000000
 R(3)=  0.0000000  0.0000000 10.0000000  G(3)=  0.0000000  0.0000000  0.1000000
 Unit cell volume ucvol=  1.0000000E+03 bohr^3
 Angles (23,13,12)=  9.00000000E+01  9.00000000E+01  9.00000000E+01 degrees
 
 getcut: wavevector=  0.0000  0.0000  0.0000  ngfft=  30  30  30
         ecut(hartree)=     10.000   => boxcut(ratio)=   2.10744
 
--- Pseudopotential description ------------------------------------------------
- pspini: atom type   1  psp file is /home/mmm1483/Scratch/abinit_code/basic1/persudo/H.psp8
- pspatm: opening atomic psp file    /home/mmm1483/Scratch/abinit_code/basic1/persudo/H.psp8
- H     ONCVPSP-3.2.3.1  r_core=   1.00957   0.70586
-  1.00000   1.00000    170501                znucl, zion, pspdat
    8   11    1    4       300   0.00000      pspcod,pspxc,lmax,lloc,mmax,r2well
    2.99000000000000    0.00000000000000    0.00000000000000   rchrg,fchrg,qchrg
     nproj     2     1
     extension_switch     1
  pspatm : epsatm=    0.36235122
         --- l  ekb(1:nproj) -->
             0   -1.701123   -0.534484
             1   -0.503321
 pspatm: atomic psp has been read  and splines computed
 
   1.44940486E+00                                ecore*ucvol(ha*bohr**3)
--------------------------------------------------------------------------------
 
_setup2: Arith. and geom. avg. npw (full set) are    1503.000    1503.000
 
================================================================================

--- !BeginCycle
iteration_state: {dtset: 1, }
solver: {iscf: 7, nstep: 10, nline: 4, wfoptalg: 0, }
tolerances: {toldfe: 1.00E-06, }
...
 
     iter   Etot(hartree)      deltaE(h)  residm     vres2
 ETOT  1  -1.0760153601099    -1.076E+00 2.902E-06 3.932E+01
 ETOT  2  -1.0887309701287    -1.272E-02 1.137E-08 2.401E+00
 ETOT  3  -1.0889782976167    -2.473E-04 1.656E-06 2.093E-01
 ETOT  4  -1.0889872841806    -8.987E-06 2.659E-08 1.479E-02
 ETOT  5  -1.0889875566422    -2.725E-07 7.366E-10 1.518E-03
 ETOT  6  -1.0889875615327    -4.891E-09 6.933E-12 2.385E-05
 
 At SCF step    6, etot is converged : 
  for the second time, diff in etot=  4.891E-09 < toldfe=  1.000E-06
 
 Cartesian components of stress tensor (hartree/bohr^3)
  sigma(1 1)= -3.33378909E-04  sigma(3 2)=  0.00000000E+00
  sigma(2 2)=  5.40874925E-05  sigma(3 1)=  0.00000000E+00
  sigma(3 3)=  5.40874925E-05  sigma(2 1)=  0.00000000E+00
 

--- !ResultsGS
iteration_state: {dtset: 1, }
comment   : Summary of ground state results
lattice_vectors:
- [ 10.0000000,   0.0000000,   0.0000000, ]
- [  0.0000000,  10.0000000,   0.0000000, ]
- [  0.0000000,   0.0000000,  10.0000000, ]
lattice_lengths: [  10.00000,   10.00000,   10.00000, ]
lattice_angles: [ 90.000,  90.000,  90.000, ] # degrees, (23, 13, 12)
lattice_volume:   1.0000000E+03
convergence: {deltae: -4.891E-09, res2:  2.385E-05, residm:  6.933E-12, diffor: null, }
etotal    :  -1.08898756E+00
entropy   :   0.00000000E+00
fermie    :  -4.18036001E-01
cartesian_stress_tensor: # hartree/bohr^3
- [ -3.33378909E-04,   0.00000000E+00,   0.00000000E+00, ]
- [  0.00000000E+00,   5.40874925E-05,   0.00000000E+00, ]
- [  0.00000000E+00,   0.00000000E+00,   5.40874925E-05, ]
pressure_GPa:   2.2086E+00
xred      :
- [ -5.0000E-02,   0.0000E+00,   0.0000E+00,  H]
- [  5.0000E-02,   0.0000E+00,   0.0000E+00,  H]
cartesian_forces: # hartree/bohr
- [ -3.47536431E-01,   0.00000000E+00,   0.00000000E+00, ]
- [  3.47536431E-01,   0.00000000E+00,   0.00000000E+00, ]
force_length_stats: {min:   3.47536431E-01, max:   3.47536431E-01, mean:   3.47536431E-01, }
...

 Integrated electronic density in atomic spheres:
 ------------------------------------------------
 Atom  Sphere_radius  Integrated_density
    1        2.00000          1.64403284
    2        2.00000          1.64403284
================================================================================
 
 ----iterations are completed or convergence reached----
 
 Mean square residual over all n,k,spin=   69.330E-13; max=  69.330E-13
 reduced coordinates (array xred) for    2 atoms
      -0.050000000000      0.000000000000      0.000000000000
       0.050000000000      0.000000000000      0.000000000000
 rms dE/dt=  2.0065E+00; max dE/dt=  3.4754E+00; dE/dt below (all hartree)
    1       3.475364312150      0.000000000000      0.000000000000
    2      -3.475364312150      0.000000000000      0.000000000000
 
 cartesian coordinates (angstrom) at end:
    1     -0.26458860429500     0.00000000000000     0.00000000000000
    2      0.26458860429500     0.00000000000000     0.00000000000000
 
 cartesian forces (hartree/bohr) at end:
    1     -0.34753643121498     0.00000000000000     0.00000000000000
    2      0.34753643121498     0.00000000000000     0.00000000000000
 frms,max,avg= 2.0065025E-01 3.4753643E-01   0.000E+00  0.000E+00  0.000E+00 h/b
 
 cartesian forces (eV/Angstrom) at end:
    1    -17.87104032753686     0.00000000000000     0.00000000000000
    2     17.87104032753686     0.00000000000000     0.00000000000000
 frms,max,avg= 1.0317850E+01 1.7871040E+01   0.000E+00  0.000E+00  0.000E+00 e/A
 length scales= 10.000000000000 10.000000000000 10.000000000000 bohr
              =  5.291772085900  5.291772085900  5.291772085900 angstroms
 prteigrs : about to open file tbase1_2o_DS1_EIG
 Fermi (or HOMO) energy (hartree) =  -0.41804   Average Vxc (hartree)=  -0.06774
 Eigenvalues (hartree) for nkpt=   1  k points:
 kpt#   1, nband=  1, wtk=  1.00000, kpt=  0.0000  0.0000  0.0000 (reduced coord)
  -0.41804

--- !EnergyTerms
iteration_state     : {dtset: 1, }
comment             : Components of total free energy in Hartree
kinetic             :  1.30243108088003E+00
hartree             :  9.03483271050741E-01
xc                  : -7.54383107174607E-01
Ewald energy        :  4.34666042075695E-01
psp_core            :  1.44940486444340E-03
local_psp           : -2.72951203230073E+00
non_local_psp       : -2.47122220928316E-01
total_energy        : -1.08898756153275E+00
total_energy_eV     : -2.96328585556330E+01
band_energy         : -8.36072002821681E-01
...

 
 Cartesian components of stress tensor (hartree/bohr^3)
  sigma(1 1)= -3.33378909E-04  sigma(3 2)=  0.00000000E+00
  sigma(2 2)=  5.40874925E-05  sigma(3 1)=  0.00000000E+00
  sigma(3 3)=  5.40874925E-05  sigma(2 1)=  0.00000000E+00
 
-Cartesian components of stress tensor (GPa)         [Pressure=  2.2086E+00 GPa]
- sigma(1 1)= -9.80834449E+00  sigma(3 2)=  0.00000000E+00
- sigma(2 2)=  1.59130870E+00  sigma(3 1)=  0.00000000E+00
- sigma(3 3)=  1.59130870E+00  sigma(2 1)=  0.00000000E+00
 
================================================================================
== DATASET  2 ==================================================================
-   mpi_nproc: 1, omp_nthreads: -1 (-1 if OMP is not activated)
 

--- !DatasetInfo
iteration_state: {dtset: 2, }
dimensions: {natom: 2, nkpt: 1, mband: 1, nsppol: 1, nspinor: 1, nspden: 1, mpw: 752, }
cutoff_energies: {ecut:  10.0, pawecutdg:  -1.0, }
electrons: {nelect:   2.00000000E+00, charge:   0.00000000E+00, occopt:   1.00000000E+00, tsmear:   1.00000000E-02, }
meta: {optdriver: 0, ionmov: 0, optcell: 0, iscf: 7, paral_kgb: 0, }
...

 mkfilename : getwfk/=0, take file _WFK from output of DATASET   1.
 
 Exchange-correlation functional for the present dataset will be:
  GGA: Perdew-Burke-Ernzerhof functional - ixc=11
 Citation for XC functional:
  J.P.Perdew, K.Burke, M.Ernzerhof, PRL 77, 3865 (1996)
 
 Real(R)+Recip(G) space primitive vectors, cartesian coordinates (Bohr,Bohr^-1):
 R(1)= 10.0000000  0.0000000  0.0000000  G(1)=  0.1000000  0.0000000  0.0000000
 R(2)=  0.0000000 10.0000000  0.0000000  G(2)=  0.0000000  0.1000000  0.0000000
 R(3)=  0.0000000  0.0000000 10.0000000  G(3)=  0.0000000  0.0000000  0.1000000
 Unit cell volume ucvol=  1.0000000E+03 bohr^3
 Angles (23,13,12)=  9.00000000E+01  9.00000000E+01  9.00000000E+01 degrees
 
 getcut: wavevector=  0.0000  0.0000  0.0000  ngfft=  30  30  30
         ecut(hartree)=     10.000   => boxcut(ratio)=   2.10744
--------------------------------------------------------------------------------
 
-inwffil : will read wavefunctions from disk file tbase1_2o_DS1_WFK
_setup2: Arith. and geom. avg. npw (full set) are    1503.000    1503.000
 
================================================================================

--- !BeginCycle
iteration_state: {dtset: 2, }
solver: {iscf: 7, nstep: 10, nline: 4, wfoptalg: 0, }
tolerances: {toldfe: 1.00E-06, }
...
 
     iter   Etot(hartree)      deltaE(h)  residm     vres2
 ETOT  1  -1.1043575754413    -1.104E+00 5.477E-10 4.412E-01
 ETOT  2  -1.1044342058118    -7.663E-05 8.102E-12 5.398E-02
 ETOT  3  -1.1044367414335    -2.536E-06 9.939E-09 1.566E-03
 ETOT  4  -1.1044367480475    -6.614E-09 3.858E-11 3.572E-05
 ETOT  5  -1.1044367488684    -8.210E-10 2.744E-12 2.332E-06
 
 At SCF step    5, etot is converged : 
  for the second time, diff in etot=  8.210E-10 < toldfe=  1.000E-06
 
 Cartesian components of stress tensor (hartree/bohr^3)
  sigma(1 1)= -2.71315372E-04  sigma(3 2)=  0.00000000E+00
  sigma(2 2)=  4.99795714E-05  sigma(3 1)=  0.00000000E+00
  sigma(3 3)=  4.99795714E-05  sigma(2 1)=  0.00000000E+00
 

--- !ResultsGS
iteration_state: {dtset: 2, }
comment   : Summary of ground state results
lattice_vectors:
- [ 10.0000000,   0.0000000,   0.0000000, ]
- [  0.0000000,  10.0000000,   0.0000000, ]
- [  0.0000000,   0.0000000,  10.0000000, ]
lattice_lengths: [  10.00000,   10.00000,   10.00000, ]
lattice_angles: [ 90.000,  90.000,  90.000, ] # degrees, (23, 13, 12)
lattice_volume:   1.0000000E+03
convergence: {deltae: -8.210E-10, res2:  2.332E-06, residm:  2.744E-12, diffor: null, }
etotal    :  -1.10443675E+00
entropy   :   0.00000000E+00
fermie    :  -4.11595395E-01
cartesian_stress_tensor: # hartree/bohr^3
- [ -2.71315372E-04,   0.00000000E+00,   0.00000000E+00, ]
- [  0.00000000E+00,   4.99795714E-05,   0.00000000E+00, ]
- [  0.00000000E+00,   0.00000000E+00,   4.99795714E-05, ]
pressure_GPa:   1.6805E+00
xred      :
- [ -5.2500E-02,   0.0000E+00,   0.0000E+00,  H]
- [  5.2500E-02,   0.0000E+00,   0.0000E+00,  H]
cartesian_forces: # hartree/bohr
- [ -2.72928303E-01,   0.00000000E+00,   0.00000000E+00, ]
- [  2.72928303E-01,   0.00000000E+00,   0.00000000E+00, ]
force_length_stats: {min:   2.72928303E-01, max:   2.72928303E-01, mean:   2.72928303E-01, }
...

 Integrated electronic density in atomic spheres:
 ------------------------------------------------
 Atom  Sphere_radius  Integrated_density
    1        2.00000          1.62013791
    2        2.00000          1.62013791
================================================================================
 
 ----iterations are completed or convergence reached----
 
 Mean square residual over all n,k,spin=   27.438E-13; max=  27.438E-13
 reduced coordinates (array xred) for    2 atoms
      -0.052500000000      0.000000000000      0.000000000000
       0.052500000000      0.000000000000      0.000000000000
 rms dE/dt=  1.5758E+00; max dE/dt=  2.7293E+00; dE/dt below (all hartree)
    1       2.729283030552      0.000000000000      0.000000000000
    2      -2.729283030552      0.000000000000      0.000000000000
 
 cartesian coordinates (angstrom) at end:
    1     -0.27781803450975     0.00000000000000     0.00000000000000
    2      0.27781803450975     0.00000000000000     0.00000000000000
 
 cartesian forces (hartree/bohr) at end:
    1     -0.27292830305522     0.00000000000000     0.00000000000000
    2      0.27292830305522     0.00000000000000     0.00000000000000
 frms,max,avg= 1.5757523E-01 2.7292830E-01   0.000E+00  0.000E+00  0.000E+00 h/b
 
 cartesian forces (eV/Angstrom) at end:
    1    -14.03453644665194     0.00000000000000     0.00000000000000
    2     14.03453644665194     0.00000000000000     0.00000000000000
 frms,max,avg= 8.1028434E+00 1.4034536E+01   0.000E+00  0.000E+00  0.000E+00 e/A
 length scales= 10.000000000000 10.000000000000 10.000000000000 bohr
              =  5.291772085900  5.291772085900  5.291772085900 angstroms
 prteigrs : about to open file tbase1_2o_DS2_EIG
 Fermi (or HOMO) energy (hartree) =  -0.41160   Average Vxc (hartree)=  -0.06877
 Eigenvalues (hartree) for nkpt=   1  k points:
 kpt#   1, nband=  1, wtk=  1.00000, kpt=  0.0000  0.0000  0.0000 (reduced coord)
  -0.41160

--- !EnergyTerms
iteration_state     : {dtset: 2, }
comment             : Components of total free energy in Hartree
kinetic             :  1.26356766253603E+00
hartree             :  8.81232143721015E-01
xc                  : -7.43353272252479E-01
Ewald energy        :  3.87268389438836E-01
psp_core            :  1.44940486444340E-03
local_psp           : -2.66040817483078E+00
non_local_psp       : -2.34192902345505E-01
total_energy        : -1.10443674886845E+00
total_energy_eV     : -3.00532523225497E+01
band_energy         : -8.23190790521583E-01
...

 
 Cartesian components of stress tensor (hartree/bohr^3)
  sigma(1 1)= -2.71315372E-04  sigma(3 2)=  0.00000000E+00
  sigma(2 2)=  4.99795714E-05  sigma(3 1)=  0.00000000E+00
  sigma(3 3)=  4.99795714E-05  sigma(2 1)=  0.00000000E+00
 
-Cartesian components of stress tensor (GPa)         [Pressure=  1.6805E+00 GPa]
- sigma(1 1)= -7.98237248E+00  sigma(3 2)=  0.00000000E+00
- sigma(2 2)=  1.47044951E+00  sigma(3 1)=  0.00000000E+00
- sigma(3 3)=  1.47044951E+00  sigma(2 1)=  0.00000000E+00
 
================================================================================
== DATASET  3 ==================================================================
-   mpi_nproc: 1, omp_nthreads: -1 (-1 if OMP is not activated)
 

--- !DatasetInfo
iteration_state: {dtset: 3, }
dimensions: {natom: 2, nkpt: 1, mband: 1, nsppol: 1, nspinor: 1, nspden: 1, mpw: 752, }
cutoff_energies: {ecut:  10.0, pawecutdg:  -1.0, }
electrons: {nelect:   2.00000000E+00, charge:   0.00000000E+00, occopt:   1.00000000E+00, tsmear:   1.00000000E-02, }
meta: {optdriver: 0, ionmov: 0, optcell: 0, iscf: 7, paral_kgb: 0, }
...

 mkfilename : getwfk/=0, take file _WFK from output of DATASET   2.
 
 Exchange-correlation functional for the present dataset will be:
  GGA: Perdew-Burke-Ernzerhof functional - ixc=11
 Citation for XC functional:
  J.P.Perdew, K.Burke, M.Ernzerhof, PRL 77, 3865 (1996)
 
 Real(R)+Recip(G) space primitive vectors, cartesian coordinates (Bohr,Bohr^-1):
 R(1)= 10.0000000  0.0000000  0.0000000  G(1)=  0.1000000  0.0000000  0.0000000
 R(2)=  0.0000000 10.0000000  0.0000000  G(2)=  0.0000000  0.1000000  0.0000000
 R(3)=  0.0000000  0.0000000 10.0000000  G(3)=  0.0000000  0.0000000  0.1000000
 Unit cell volume ucvol=  1.0000000E+03 bohr^3
 Angles (23,13,12)=  9.00000000E+01  9.00000000E+01  9.00000000E+01 degrees
 
 getcut: wavevector=  0.0000  0.0000  0.0000  ngfft=  30  30  30
         ecut(hartree)=     10.000   => boxcut(ratio)=   2.10744
--------------------------------------------------------------------------------
 
-inwffil : will read wavefunctions from disk file tbase1_2o_DS2_WFK
_setup2: Arith. and geom. avg. npw (full set) are    1503.000    1503.000
 
================================================================================

--- !BeginCycle
iteration_state: {dtset: 3, }
solver: {iscf: 7, nstep: 10, nline: 4, wfoptalg: 0, }
tolerances: {toldfe: 1.00E-06, }
...
 
     iter   Etot(hartree)      deltaE(h)  residm     vres2
 ETOT  1  -1.1164285475556    -1.116E+00 5.452E-10 4.699E-01
 ETOT  2  -1.1165034418862    -7.489E-05 9.823E-12 6.389E-02
 ETOT  3  -1.1165058257303    -2.384E-06 9.118E-09 1.182E-03
 ETOT  4  -1.1165058361296    -1.040E-08 4.106E-11 1.816E-05
 ETOT  5  -1.1165058362832    -1.536E-10 2.416E-13 2.054E-06
 
 At SCF step    5, etot is converged : 
  for the second time, diff in etot=  1.536E-10 < toldfe=  1.000E-06
 
 Cartesian components of stress tensor (hartree/bohr^3)
  sigma(1 1)= -2.15861182E-04  sigma(3 2)=  0.00000000E+00
  sigma(2 2)=  4.64661771E-05  sigma(3 1)=  0.00000000E+00
  sigma(3 3)=  4.64661771E-05  sigma(2 1)=  0.00000000E+00
 

--- !ResultsGS
iteration_state: {dtset: 3, }
comment   : Summary of ground state results
lattice_vectors:
- [ 10.0000000,   0.0000000,   0.0000000, ]
- [  0.0000000,  10.0000000,   0.0000000, ]
- [  0.0000000,   0.0000000,  10.0000000, ]
lattice_lengths: [  10.00000,   10.00000,   10.00000, ]
lattice_angles: [ 90.000,  90.000,  90.000, ] # degrees, (23, 13, 12)
lattice_volume:   1.0000000E+03
convergence: {deltae: -1.536E-10, res2:  2.054E-06, residm:  2.416E-13, diffor: null, }
etotal    :  -1.11650584E+00
entropy   :   0.00000000E+00
fermie    :  -4.05451102E-01
cartesian_stress_tensor: # hartree/bohr^3
- [ -2.15861182E-04,   0.00000000E+00,   0.00000000E+00, ]
- [  0.00000000E+00,   4.64661771E-05,   0.00000000E+00, ]
- [  0.00000000E+00,   0.00000000E+00,   4.64661771E-05, ]
pressure_GPa:   1.2056E+00
xred      :
- [ -5.5000E-02,   0.0000E+00,   0.0000E+00,  H]
- [  5.5000E-02,   0.0000E+00,   0.0000E+00,  H]
cartesian_forces: # hartree/bohr
- [ -2.11868008E-01,   0.00000000E+00,   0.00000000E+00, ]
- [  2.11868008E-01,   0.00000000E+00,   0.00000000E+00, ]
force_length_stats: {min:   2.11868008E-01, max:   2.11868008E-01, mean:   2.11868008E-01, }
...

 Integrated electronic density in atomic spheres:
 ------------------------------------------------
 Atom  Sphere_radius  Integrated_density
    1        2.00000          1.60517858
    2        2.00000          1.60517858
================================================================================
 
 ----iterations are completed or convergence reached----
 
 Mean square residual over all n,k,spin=   24.159E-14; max=  24.159E-14
 reduced coordinates (array xred) for    2 atoms
      -0.055000000000      0.000000000000      0.000000000000
       0.055000000000      0.000000000000      0.000000000000
 rms dE/dt=  1.2232E+00; max dE/dt=  2.1187E+00; dE/dt below (all hartree)
    1       2.118680081719      0.000000000000      0.000000000000
    2      -2.118680081719      0.000000000000      0.000000000000
 
 cartesian coordinates (angstrom) at end:
    1     -0.29104746472450     0.00000000000000     0.00000000000000
    2      0.29104746472450     0.00000000000000     0.00000000000000
 
 cartesian forces (hartree/bohr) at end:
    1     -0.21186800817186     0.00000000000000     0.00000000000000
    2      0.21186800817186     0.00000000000000     0.00000000000000
 frms,max,avg= 1.2232205E-01 2.1186801E-01   0.000E+00  0.000E+00  0.000E+00 h/b
 
 cartesian forces (eV/Angstrom) at end:
    1    -10.89469010462395     0.00000000000000     0.00000000000000
    2     10.89469010462395     0.00000000000000     0.00000000000000
 frms,max,avg= 6.2900523E+00 1.0894690E+01   0.000E+00  0.000E+00  0.000E+00 e/A
 length scales= 10.000000000000 10.000000000000 10.000000000000 bohr
              =  5.291772085900  5.291772085900  5.291772085900 angstroms
 prteigrs : about to open file tbase1_2o_DS3_EIG
 Fermi (or HOMO) energy (hartree) =  -0.40545   Average Vxc (hartree)=  -0.06979
 Eigenvalues (hartree) for nkpt=   1  k points:
 kpt#   1, nband=  1, wtk=  1.00000, kpt=  0.0000  0.0000  0.0000 (reduced coord)
  -0.40545

--- !EnergyTerms
iteration_state     : {dtset: 3, }
comment             : Components of total free energy in Hartree
kinetic             :  1.22667366400211E+00
hartree             :  8.59535899963157E-01
xc                  : -7.32628541843351E-01
Ewald energy        :  3.44211247397988E-01
psp_core            :  1.44940486444340E-03
local_psp           : -2.59342829630778E+00
non_local_psp       : -2.22319214359781E-01
total_energy        : -1.11650583628322E+00
total_energy_eV     : -3.03816688930330E+01
band_energy         : -8.10902203838231E-01
...

 
 Cartesian components of stress tensor (hartree/bohr^3)
  sigma(1 1)= -2.15861182E-04  sigma(3 2)=  0.00000000E+00
  sigma(2 2)=  4.64661771E-05  sigma(3 1)=  0.00000000E+00
  sigma(3 3)=  4.64661771E-05  sigma(2 1)=  0.00000000E+00
 
-Cartesian components of stress tensor (GPa)         [Pressure=  1.2056E+00 GPa]
- sigma(1 1)= -6.35085417E+00  sigma(3 2)=  0.00000000E+00
- sigma(2 2)=  1.36708190E+00  sigma(3 1)=  0.00000000E+00
- sigma(3 3)=  1.36708190E+00  sigma(2 1)=  0.00000000E+00
 
================================================================================
== DATASET  4 ==================================================================
-   mpi_nproc: 1, omp_nthreads: -1 (-1 if OMP is not activated)
 

--- !DatasetInfo
iteration_state: {dtset: 4, }
dimensions: {natom: 2, nkpt: 1, mband: 1, nsppol: 1, nspinor: 1, nspden: 1, mpw: 752, }
cutoff_energies: {ecut:  10.0, pawecutdg:  -1.0, }
electrons: {nelect:   2.00000000E+00, charge:   0.00000000E+00, occopt:   1.00000000E+00, tsmear:   1.00000000E-02, }
meta: {optdriver: 0, ionmov: 0, optcell: 0, iscf: 7, paral_kgb: 0, }
...

 mkfilename : getwfk/=0, take file _WFK from output of DATASET   3.
 
 Exchange-correlation functional for the present dataset will be:
  GGA: Perdew-Burke-Ernzerhof functional - ixc=11
 Citation for XC functional:
  J.P.Perdew, K.Burke, M.Ernzerhof, PRL 77, 3865 (1996)
 
 Real(R)+Recip(G) space primitive vectors, cartesian coordinates (Bohr,Bohr^-1):
 R(1)= 10.0000000  0.0000000  0.0000000  G(1)=  0.1000000  0.0000000  0.0000000
 R(2)=  0.0000000 10.0000000  0.0000000  G(2)=  0.0000000  0.1000000  0.0000000
 R(3)=  0.0000000  0.0000000 10.0000000  G(3)=  0.0000000  0.0000000  0.1000000
 Unit cell volume ucvol=  1.0000000E+03 bohr^3
 Angles (23,13,12)=  9.00000000E+01  9.00000000E+01  9.00000000E+01 degrees
 
 getcut: wavevector=  0.0000  0.0000  0.0000  ngfft=  30  30  30
         ecut(hartree)=     10.000   => boxcut(ratio)=   2.10744
--------------------------------------------------------------------------------
 
-inwffil : will read wavefunctions from disk file tbase1_2o_DS3_WFK
_setup2: Arith. and geom. avg. npw (full set) are    1503.000    1503.000
 
================================================================================

--- !BeginCycle
iteration_state: {dtset: 4, }
solver: {iscf: 7, nstep: 10, nline: 4, wfoptalg: 0, }
tolerances: {toldfe: 1.00E-06, }
...
 
     iter   Etot(hartree)      deltaE(h)  residm     vres2
 ETOT  1  -1.1257316132247    -1.126E+00 6.509E-10 4.999E-01
 ETOT  2  -1.1258044258018    -7.281E-05 1.122E-11 5.636E-02
 ETOT  3  -1.1258066530604    -2.227E-06 8.839E-09 9.044E-04
 ETOT  4  -1.1258066594849    -6.424E-09 1.357E-12 3.695E-05
 ETOT  5  -1.1258066595969    -1.120E-10 9.794E-14 2.904E-06
 
 At SCF step    5, etot is converged : 
  for the second time, diff in etot=  1.120E-10 < toldfe=  1.000E-06
 
 Cartesian components of stress tensor (hartree/bohr^3)
  sigma(1 1)= -1.66326567E-04  sigma(3 2)=  0.00000000E+00
  sigma(2 2)=  4.35097165E-05  sigma(3 1)=  0.00000000E+00
  sigma(3 3)=  4.35097165E-05  sigma(2 1)=  0.00000000E+00
 

--- !ResultsGS
iteration_state: {dtset: 4, }
comment   : Summary of ground state results
lattice_vectors:
- [ 10.0000000,   0.0000000,   0.0000000, ]
- [  0.0000000,  10.0000000,   0.0000000, ]
- [  0.0000000,   0.0000000,  10.0000000, ]
lattice_lengths: [  10.00000,   10.00000,   10.00000, ]
lattice_angles: [ 90.000,  90.000,  90.000, ] # degrees, (23, 13, 12)
lattice_volume:   1.0000000E+03
convergence: {deltae: -1.120E-10, res2:  2.904E-06, residm:  9.794E-14, diffor: null, }
etotal    :  -1.12580666E+00
entropy   :   0.00000000E+00
fermie    :  -3.99558980E-01
cartesian_stress_tensor: # hartree/bohr^3
- [ -1.66326567E-04,   0.00000000E+00,   0.00000000E+00, ]
- [  0.00000000E+00,   4.35097165E-05,   0.00000000E+00, ]
- [  0.00000000E+00,   0.00000000E+00,   4.35097165E-05, ]
pressure_GPa:   7.7777E-01
xred      :
- [ -5.7500E-02,   0.0000E+00,   0.0000E+00,  H]
- [  5.7500E-02,   0.0000E+00,   0.0000E+00,  H]
cartesian_forces: # hartree/bohr
- [ -1.61818104E-01,   0.00000000E+00,   0.00000000E+00, ]
- [  1.61818104E-01,   0.00000000E+00,   0.00000000E+00, ]
force_length_stats: {min:   1.61818104E-01, max:   1.61818104E-01, mean:   1.61818104E-01, }
...

 Integrated electronic density in atomic spheres:
 ------------------------------------------------
 Atom  Sphere_radius  Integrated_density
    1        2.00000          1.58666627
    2        2.00000          1.58666627
================================================================================
 
 ----iterations are completed or convergence reached----
 
 Mean square residual over all n,k,spin=   97.937E-15; max=  97.937E-15
 reduced coordinates (array xred) for    2 atoms
      -0.057500000000      0.000000000000      0.000000000000
       0.057500000000      0.000000000000      0.000000000000
 rms dE/dt=  9.3426E-01; max dE/dt=  1.6182E+00; dE/dt below (all hartree)
    1       1.618181038708      0.000000000000      0.000000000000
    2      -1.618181038708      0.000000000000      0.000000000000
 
 cartesian coordinates (angstrom) at end:
    1     -0.30427689493925     0.00000000000000     0.00000000000000
    2      0.30427689493925     0.00000000000000     0.00000000000000
 
 cartesian forces (hartree/bohr) at end:
    1     -0.16181810387085     0.00000000000000     0.00000000000000
    2      0.16181810387085     0.00000000000000     0.00000000000000
 frms,max,avg= 9.3425726E-02 1.6181810E-01   0.000E+00  0.000E+00  0.000E+00 h/b
 
 cartesian forces (eV/Angstrom) at end:
    1     -8.32102076289277     0.00000000000000     0.00000000000000
    2      8.32102076289277     0.00000000000000     0.00000000000000
 frms,max,avg= 4.8041436E+00 8.3210208E+00   0.000E+00  0.000E+00  0.000E+00 e/A
 length scales= 10.000000000000 10.000000000000 10.000000000000 bohr
              =  5.291772085900  5.291772085900  5.291772085900 angstroms
 prteigrs : about to open file tbase1_2o_DS4_EIG
 Fermi (or HOMO) energy (hartree) =  -0.39956   Average Vxc (hartree)=  -0.07080
 Eigenvalues (hartree) for nkpt=   1  k points:
 kpt#   1, nband=  1, wtk=  1.00000, kpt=  0.0000  0.0000  0.0000 (reduced coord)
  -0.39956

--- !EnergyTerms
iteration_state     : {dtset: 4, }
comment             : Components of total free energy in Hartree
kinetic             :  1.19175874118452E+00
hartree             :  8.38424160250236E-01
xc                  : -7.22224674368457E-01
Ewald energy        :  3.04930064724214E-01
psp_core            :  1.44940486444340E-03
local_psp           : -2.52868319921016E+00
non_local_psp       : -2.11461157041721E-01
total_energy        : -1.12580665959693E+00
total_energy_eV     : -3.06347571664363E+01
band_energy         : -7.99117959993376E-01
...

 
 Cartesian components of stress tensor (hartree/bohr^3)
  sigma(1 1)= -1.66326567E-04  sigma(3 2)=  0.00000000E+00
  sigma(2 2)=  4.35097165E-05  sigma(3 1)=  0.00000000E+00
  sigma(3 3)=  4.35097165E-05  sigma(2 1)=  0.00000000E+00
 
-Cartesian components of stress tensor (GPa)         [Pressure=  7.7777E-01 GPa]
- sigma(1 1)= -4.89349572E+00  sigma(3 2)=  0.00000000E+00
- sigma(2 2)=  1.28009984E+00  sigma(3 1)=  0.00000000E+00
- sigma(3 3)=  1.28009984E+00  sigma(2 1)=  0.00000000E+00
 
================================================================================
== DATASET  5 ==================================================================
-   mpi_nproc: 1, omp_nthreads: -1 (-1 if OMP is not activated)
 

--- !DatasetInfo
iteration_state: {dtset: 5, }
dimensions: {natom: 2, nkpt: 1, mband: 1, nsppol: 1, nspinor: 1, nspden: 1, mpw: 752, }
cutoff_energies: {ecut:  10.0, pawecutdg:  -1.0, }
electrons: {nelect:   2.00000000E+00, charge:   0.00000000E+00, occopt:   1.00000000E+00, tsmear:   1.00000000E-02, }
meta: {optdriver: 0, ionmov: 0, optcell: 0, iscf: 7, paral_kgb: 0, }
...

 mkfilename : getwfk/=0, take file _WFK from output of DATASET   4.
 
 Exchange-correlation functional for the present dataset will be:
  GGA: Perdew-Burke-Ernzerhof functional - ixc=11
 Citation for XC functional:
  J.P.Perdew, K.Burke, M.Ernzerhof, PRL 77, 3865 (1996)
 
 Real(R)+Recip(G) space primitive vectors, cartesian coordinates (Bohr,Bohr^-1):
 R(1)= 10.0000000  0.0000000  0.0000000  G(1)=  0.1000000  0.0000000  0.0000000
 R(2)=  0.0000000 10.0000000  0.0000000  G(2)=  0.0000000  0.1000000  0.0000000
 R(3)=  0.0000000  0.0000000 10.0000000  G(3)=  0.0000000  0.0000000  0.1000000
 Unit cell volume ucvol=  1.0000000E+03 bohr^3
 Angles (23,13,12)=  9.00000000E+01  9.00000000E+01  9.00000000E+01 degrees
 
 getcut: wavevector=  0.0000  0.0000  0.0000  ngfft=  30  30  30
         ecut(hartree)=     10.000   => boxcut(ratio)=   2.10744
--------------------------------------------------------------------------------
 
-inwffil : will read wavefunctions from disk file tbase1_2o_DS4_WFK
_setup2: Arith. and geom. avg. npw (full set) are    1503.000    1503.000
 
================================================================================

--- !BeginCycle
iteration_state: {dtset: 5, }
solver: {iscf: 7, nstep: 10, nline: 4, wfoptalg: 0, }
tolerances: {toldfe: 1.00E-06, }
...
 
     iter   Etot(hartree)      deltaE(h)  residm     vres2
 ETOT  1  -1.1327640693838    -1.133E+00 5.486E-11 3.593E-01
 ETOT  2  -1.1328344724842    -7.040E-05 1.236E-11 5.122E-02
 ETOT  3  -1.1328365199037    -2.047E-06 7.441E-09 1.203E-03
 ETOT  4  -1.1328365368973    -1.699E-08 6.236E-11 2.849E-05
 ETOT  5  -1.1328365370050    -1.077E-10 1.557E-13 2.596E-06
 
 At SCF step    5, etot is converged : 
  for the second time, diff in etot=  1.077E-10 < toldfe=  1.000E-06
 
 Cartesian components of stress tensor (hartree/bohr^3)
  sigma(1 1)= -1.22099074E-04  sigma(3 2)=  0.00000000E+00
  sigma(2 2)=  4.10591582E-05  sigma(3 1)=  0.00000000E+00
  sigma(3 3)=  4.10591582E-05  sigma(2 1)=  0.00000000E+00
 

--- !ResultsGS
iteration_state: {dtset: 5, }
comment   : Summary of ground state results
lattice_vectors:
- [ 10.0000000,   0.0000000,   0.0000000, ]
- [  0.0000000,  10.0000000,   0.0000000, ]
- [  0.0000000,   0.0000000,  10.0000000, ]
lattice_lengths: [  10.00000,   10.00000,   10.00000, ]
lattice_angles: [ 90.000,  90.000,  90.000, ] # degrees, (23, 13, 12)
lattice_volume:   1.0000000E+03
convergence: {deltae: -1.077E-10, res2:  2.596E-06, residm:  1.557E-13, diffor: null, }
etotal    :  -1.13283654E+00
entropy   :   0.00000000E+00
fermie    :  -3.93920690E-01
cartesian_stress_tensor: # hartree/bohr^3
- [ -1.22099074E-04,   0.00000000E+00,   0.00000000E+00, ]
- [  0.00000000E+00,   4.10591582E-05,   0.00000000E+00, ]
- [  0.00000000E+00,   0.00000000E+00,   4.10591582E-05, ]
pressure_GPa:   3.9209E-01
xred      :
- [ -6.0000E-02,   0.0000E+00,   0.0000E+00,  H]
- [  6.0000E-02,   0.0000E+00,   0.0000E+00,  H]
cartesian_forces: # hartree/bohr
- [ -1.20723544E-01,   0.00000000E+00,   0.00000000E+00, ]
- [  1.20723544E-01,   0.00000000E+00,   0.00000000E+00, ]
force_length_stats: {min:   1.20723544E-01, max:   1.20723544E-01, mean:   1.20723544E-01, }
...

 Integrated electronic density in atomic spheres:
 ------------------------------------------------
 Atom  Sphere_radius  Integrated_density
    1        2.00000          1.56420174
    2        2.00000          1.56420174
================================================================================
 
 ----iterations are completed or convergence reached----
 
 Mean square residual over all n,k,spin=   15.572E-14; max=  15.572E-14
 reduced coordinates (array xred) for    2 atoms
      -0.060000000000      0.000000000000      0.000000000000
       0.060000000000      0.000000000000      0.000000000000
 rms dE/dt=  6.9700E-01; max dE/dt=  1.2072E+00; dE/dt below (all hartree)
    1       1.207235435741      0.000000000000      0.000000000000
    2      -1.207235435741      0.000000000000      0.000000000000
 
 cartesian coordinates (angstrom) at end:
    1     -0.31750632515400     0.00000000000000     0.00000000000000
    2      0.31750632515400     0.00000000000000     0.00000000000000
 
 cartesian forces (hartree/bohr) at end:
    1     -0.12072354357406     0.00000000000000     0.00000000000000
    2      0.12072354357406     0.00000000000000     0.00000000000000
 frms,max,avg= 6.9699770E-02 1.2072354E-01   0.000E+00  0.000E+00  0.000E+00 h/b
 
 cartesian forces (eV/Angstrom) at end:
    1     -6.20785368645461     0.00000000000000     0.00000000000000
    2      6.20785368645461     0.00000000000000     0.00000000000000
 frms,max,avg= 3.5841060E+00 6.2078537E+00   0.000E+00  0.000E+00  0.000E+00 e/A
 length scales= 10.000000000000 10.000000000000 10.000000000000 bohr
              =  5.291772085900  5.291772085900  5.291772085900 angstroms
 prteigrs : about to open file tbase1_2o_DS5_EIG
 Fermi (or HOMO) energy (hartree) =  -0.39392   Average Vxc (hartree)=  -0.07179
 Eigenvalues (hartree) for nkpt=   1  k points:
 kpt#   1, nband=  1, wtk=  1.00000, kpt=  0.0000  0.0000  0.0000 (reduced coord)
  -0.39392

--- !EnergyTerms
iteration_state     : {dtset: 5, }
comment             : Components of total free energy in Hartree
kinetic             :  1.15882299966149E+00
hartree             :  8.17929381193213E-01
xc                  : -7.12158044707729E-01
Ewald energy        :  2.68954403847803E-01
psp_core            :  1.44940486444340E-03
local_psp           : -2.46626417789552E+00
non_local_psp       : -2.01570503968741E-01
total_energy        : -1.13283653700504E+00
total_energy_eV     : -3.08260498590772E+01
band_energy         : -7.87841380558251E-01
...

 
 Cartesian components of stress tensor (hartree/bohr^3)
  sigma(1 1)= -1.22099074E-04  sigma(3 2)=  0.00000000E+00
  sigma(2 2)=  4.10591582E-05  sigma(3 1)=  0.00000000E+00
  sigma(3 3)=  4.10591582E-05  sigma(2 1)=  0.00000000E+00
 
-Cartesian components of stress tensor (GPa)         [Pressure=  3.9209E-01 GPa]
- sigma(1 1)= -3.59227817E+00  sigma(3 2)=  0.00000000E+00
- sigma(2 2)=  1.20800194E+00  sigma(3 1)=  0.00000000E+00
- sigma(3 3)=  1.20800194E+00  sigma(2 1)=  0.00000000E+00
 
================================================================================
== DATASET  6 ==================================================================
-   mpi_nproc: 1, omp_nthreads: -1 (-1 if OMP is not activated)
 

--- !DatasetInfo
iteration_state: {dtset: 6, }
dimensions: {natom: 2, nkpt: 1, mband: 1, nsppol: 1, nspinor: 1, nspden: 1, mpw: 752, }
cutoff_energies: {ecut:  10.0, pawecutdg:  -1.0, }
electrons: {nelect:   2.00000000E+00, charge:   0.00000000E+00, occopt:   1.00000000E+00, tsmear:   1.00000000E-02, }
meta: {optdriver: 0, ionmov: 0, optcell: 0, iscf: 7, paral_kgb: 0, }
...

 mkfilename : getwfk/=0, take file _WFK from output of DATASET   5.
 
 Exchange-correlation functional for the present dataset will be:
  GGA: Perdew-Burke-Ernzerhof functional - ixc=11
 Citation for XC functional:
  J.P.Perdew, K.Burke, M.Ernzerhof, PRL 77, 3865 (1996)
 
 Real(R)+Recip(G) space primitive vectors, cartesian coordinates (Bohr,Bohr^-1):
 R(1)= 10.0000000  0.0000000  0.0000000  G(1)=  0.1000000  0.0000000  0.0000000
 R(2)=  0.0000000 10.0000000  0.0000000  G(2)=  0.0000000  0.1000000  0.0000000
 R(3)=  0.0000000  0.0000000 10.0000000  G(3)=  0.0000000  0.0000000  0.1000000
 Unit cell volume ucvol=  1.0000000E+03 bohr^3
 Angles (23,13,12)=  9.00000000E+01  9.00000000E+01  9.00000000E+01 degrees
 
 getcut: wavevector=  0.0000  0.0000  0.0000  ngfft=  30  30  30
         ecut(hartree)=     10.000   => boxcut(ratio)=   2.10744
--------------------------------------------------------------------------------
 
-inwffil : will read wavefunctions from disk file tbase1_2o_DS5_WFK
_setup2: Arith. and geom. avg. npw (full set) are    1503.000    1503.000
 
================================================================================

--- !BeginCycle
iteration_state: {dtset: 6, }
solver: {iscf: 7, nstep: 10, nline: 4, wfoptalg: 0, }
tolerances: {toldfe: 1.00E-06, }
...
 
     iter   Etot(hartree)      deltaE(h)  residm     vres2
 ETOT  1  -1.1379304876597    -1.138E+00 7.712E-11 3.392E-01
 ETOT  2  -1.1379982295384    -6.774E-05 1.317E-11 5.011E-02
 ETOT  3  -1.1380000998480    -1.870E-06 6.604E-09 1.437E-03
 ETOT  4  -1.1380001206268    -2.078E-08 7.394E-11 1.624E-05
 ETOT  5  -1.1380001207304    -1.036E-10 2.284E-13 1.918E-06
 
 At SCF step    5, etot is converged : 
  for the second time, diff in etot=  1.036E-10 < toldfe=  1.000E-06
 
 Cartesian components of stress tensor (hartree/bohr^3)
  sigma(1 1)= -8.26255367E-05  sigma(3 2)=  0.00000000E+00
  sigma(2 2)=  3.90578442E-05  sigma(3 1)=  0.00000000E+00
  sigma(3 3)=  3.90578442E-05  sigma(2 1)=  0.00000000E+00
 

--- !ResultsGS
iteration_state: {dtset: 6, }
comment   : Summary of ground state results
lattice_vectors:
- [ 10.0000000,   0.0000000,   0.0000000, ]
- [  0.0000000,  10.0000000,   0.0000000, ]
- [  0.0000000,   0.0000000,  10.0000000, ]
lattice_lengths: [  10.00000,   10.00000,   10.00000, ]
lattice_angles: [ 90.000,  90.000,  90.000, ] # degrees, (23, 13, 12)
lattice_volume:   1.0000000E+03
convergence: {deltae: -1.036E-10, res2:  1.918E-06, residm:  2.284E-13, diffor: null, }
etotal    :  -1.13800012E+00
entropy   :   0.00000000E+00
fermie    :  -3.88533285E-01
cartesian_stress_tensor: # hartree/bohr^3
- [ -8.26255367E-05,   0.00000000E+00,   0.00000000E+00, ]
- [  0.00000000E+00,   3.90578442E-05,   0.00000000E+00, ]
- [  0.00000000E+00,   0.00000000E+00,   3.90578442E-05, ]
pressure_GPa:   4.4228E-02
xred      :
- [ -6.2500E-02,   0.0000E+00,   0.0000E+00,  H]
- [  6.2500E-02,   0.0000E+00,   0.0000E+00,  H]
cartesian_forces: # hartree/bohr
- [ -8.69168102E-02,   0.00000000E+00,   0.00000000E+00, ]
- [  8.69168102E-02,   0.00000000E+00,   0.00000000E+00, ]
force_length_stats: {min:   8.69168102E-02, max:   8.69168102E-02, mean:   8.69168102E-02, }
...

 Integrated electronic density in atomic spheres:
 ------------------------------------------------
 Atom  Sphere_radius  Integrated_density
    1        2.00000          1.54174287
    2        2.00000          1.54174287
================================================================================
 
 ----iterations are completed or convergence reached----
 
 Mean square residual over all n,k,spin=   22.839E-14; max=  22.839E-14
 reduced coordinates (array xred) for    2 atoms
      -0.062500000000      0.000000000000      0.000000000000
       0.062500000000      0.000000000000      0.000000000000
 rms dE/dt=  5.0181E-01; max dE/dt=  8.6917E-01; dE/dt below (all hartree)
    1       0.869168101544      0.000000000000      0.000000000000
    2      -0.869168101544      0.000000000000      0.000000000000
 
 cartesian coordinates (angstrom) at end:
    1     -0.33073575536875     0.00000000000000     0.00000000000000
    2      0.33073575536875     0.00000000000000     0.00000000000000
 
 cartesian forces (hartree/bohr) at end:
    1     -0.08691681015444     0.00000000000000     0.00000000000000
    2      0.08691681015444     0.00000000000000     0.00000000000000
 frms,max,avg= 5.0181444E-02 8.6916810E-02   0.000E+00  0.000E+00  0.000E+00 h/b
 
 cartesian forces (eV/Angstrom) at end:
    1     -4.46944170422827     0.00000000000000     0.00000000000000
    2      4.46944170422827     0.00000000000000     0.00000000000000
 frms,max,avg= 2.5804334E+00 4.4694417E+00   0.000E+00  0.000E+00  0.000E+00 e/A
 length scales= 10.000000000000 10.000000000000 10.000000000000 bohr
              =  5.291772085900  5.291772085900  5.291772085900 angstroms
 prteigrs : about to open file tbase1_2o_DS6_EIG
 Fermi (or HOMO) energy (hartree) =  -0.38853   Average Vxc (hartree)=  -0.07276
 Eigenvalues (hartree) for nkpt=   1  k points:
 kpt#   1, nband=  1, wtk=  1.00000, kpt=  0.0000  0.0000  0.0000 (reduced coord)
  -0.38853

--- !EnergyTerms
iteration_state     : {dtset: 6, }
comment             : Components of total free energy in Hartree
kinetic             :  1.12784474017890E+00
hartree             :  7.98074638594152E-01
xc                  : -7.02439968848177E-01
Ewald energy        :  2.35889119124748E-01
psp_core            :  1.44940486444340E-03
local_psp           : -2.40622636331713E+00
non_local_psp       : -1.92591691327356E-01
total_energy        : -1.13800012073042E+00
total_energy_eV     : -3.09665581179218E+01
band_energy         : -7.77066569387720E-01
...

 
 Cartesian components of stress tensor (hartree/bohr^3)
  sigma(1 1)= -8.26255367E-05  sigma(3 2)=  0.00000000E+00
  sigma(2 2)=  3.90578442E-05  sigma(3 1)=  0.00000000E+00
  sigma(3 3)=  3.90578442E-05  sigma(2 1)=  0.00000000E+00
 
-Cartesian components of stress tensor (GPa)         [Pressure=  4.4228E-02 GPa]
- sigma(1 1)= -2.43092681E+00  sigma(3 2)=  0.00000000E+00
- sigma(2 2)=  1.14912126E+00  sigma(3 1)=  0.00000000E+00
- sigma(3 3)=  1.14912126E+00  sigma(2 1)=  0.00000000E+00
 
================================================================================
== DATASET  7 ==================================================================
-   mpi_nproc: 1, omp_nthreads: -1 (-1 if OMP is not activated)
 

--- !DatasetInfo
iteration_state: {dtset: 7, }
dimensions: {natom: 2, nkpt: 1, mband: 1, nsppol: 1, nspinor: 1, nspden: 1, mpw: 752, }
[...]
           istwfk        2
              ixc          11
           jdtset        1    2    3    4    5    6    7    8    9   10
                        11   12   13   14   15   16   17   18   19   20
                        21
           kptopt           0
P           mkmem           1
            natom           2
            nband           1
           ndtset          21
            ngfft          30      30      30
             nkpt           1
            nstep          10
             nsym          16
           ntypat           1
              occ      2.000000
          spgroup         123
           strten1    -3.3337890934E-04  5.4087492529E-05  5.4087492529E-05
                       0.0000000000E+00  0.0000000000E+00  0.0000000000E+00
           strten2    -2.7131537152E-04  4.9979571438E-05  4.9979571438E-05
                       0.0000000000E+00  0.0000000000E+00  0.0000000000E+00
           strten3    -2.1586118200E-04  4.6466177113E-05  4.6466177113E-05
                       0.0000000000E+00  0.0000000000E+00  0.0000000000E+00
           strten4    -1.6632656685E-04  4.3509716466E-05  4.3509716466E-05
                       0.0000000000E+00  0.0000000000E+00  0.0000000000E+00
           strten5    -1.2209907378E-04  4.1059158234E-05  4.1059158234E-05
                       0.0000000000E+00  0.0000000000E+00  0.0000000000E+00
           strten6    -8.2625536718E-05  3.9057844209E-05  3.9057844209E-05
                       0.0000000000E+00  0.0000000000E+00  0.0000000000E+00
           strten7    -4.7404337079E-05  3.7450956677E-05  3.7450956677E-05
                       0.0000000000E+00  0.0000000000E+00  0.0000000000E+00
           strten8    -1.5979768387E-05  3.6187600119E-05  3.6187600119E-05
                       0.0000000000E+00  0.0000000000E+00  0.0000000000E+00
           strten9     1.2060151954E-05  3.5216700295E-05  3.5216700295E-05
                       0.0000000000E+00  0.0000000000E+00  0.0000000000E+00
           strten10    3.7096367213E-05  3.4488025928E-05  3.4488025928E-05
                       0.0000000000E+00  0.0000000000E+00  0.0000000000E+00
           strten11    5.9468535784E-05  3.3957752196E-05  3.3957752196E-05
                       0.0000000000E+00  0.0000000000E+00  0.0000000000E+00
           strten12    7.9490380278E-05  3.3589213071E-05  3.3589213071E-05
                       0.0000000000E+00  0.0000000000E+00  0.0000000000E+00
           strten13    9.7436897356E-05  3.3341960420E-05  3.3341960420E-05
                       0.0000000000E+00  0.0000000000E+00  0.0000000000E+00
           strten14    1.1356429897E-04  3.3183096319E-05  3.3183096319E-05
                       0.0000000000E+00  0.0000000000E+00  0.0000000000E+00
           strten15    1.2809730089E-04  3.3087865289E-05  3.3087865289E-05
                       0.0000000000E+00  0.0000000000E+00  0.0000000000E+00
           strten16    1.4123806204E-04  3.3029573852E-05  3.3029573852E-05
                       0.0000000000E+00  0.0000000000E+00  0.0000000000E+00
           strten17    1.5316408601E-04  3.2987813406E-05  3.2987813406E-05
                       0.0000000000E+00  0.0000000000E+00  0.0000000000E+00
           strten18    1.6402681232E-04  3.2953189724E-05  3.2953189724E-05
                       0.0000000000E+00  0.0000000000E+00  0.0000000000E+00
           strten19    1.7396309988E-04  3.2907124539E-05  3.2907124539E-05
                       0.0000000000E+00  0.0000000000E+00  0.0000000000E+00
           strten20    1.8308300050E-04  3.2847111816E-05  3.2847111816E-05
                       0.0000000000E+00  0.0000000000E+00  0.0000000000E+00
           strten21    1.9148316833E-04  3.2764632480E-05  3.2764632480E-05
                       0.0000000000E+00  0.0000000000E+00  0.0000000000E+00
           symrel      1  0  0   0  1  0   0  0  1      -1  0  0   0 -1  0   0  0 -1
                      -1  0  0   0  1  0   0  0 -1       1  0  0   0 -1  0   0  0  1
                      -1  0  0   0 -1  0   0  0  1       1  0  0   0  1  0   0  0 -1
                       1  0  0   0 -1  0   0  0 -1      -1  0  0   0  1  0   0  0  1
                       1  0  0   0  0  1   0  1  0      -1  0  0   0  0 -1   0 -1  0
                      -1  0  0   0  0  1   0 -1  0       1  0  0   0  0 -1   0  1  0
                      -1  0  0   0  0 -1   0  1  0       1  0  0   0  0  1   0 -1  0
                       1  0  0   0  0 -1   0 -1  0      -1  0  0   0  0  1   0  1  0
           toldfe      1.00000000E-06 Hartree
            typat      1  1
           xangst1    -2.6458860429E-01  0.0000000000E+00  0.0000000000E+00
                       2.6458860429E-01  0.0000000000E+00  0.0000000000E+00
           xangst2    -2.7781803451E-01  0.0000000000E+00  0.0000000000E+00
                       2.7781803451E-01  0.0000000000E+00  0.0000000000E+00
           xangst3    -2.9104746472E-01  0.0000000000E+00  0.0000000000E+00
                       2.9104746472E-01  0.0000000000E+00  0.0000000000E+00
           xangst4    -3.0427689494E-01  0.0000000000E+00  0.0000000000E+00
                       3.0427689494E-01  0.0000000000E+00  0.0000000000E+00
           xangst5    -3.1750632515E-01  0.0000000000E+00  0.0000000000E+00
                       3.1750632515E-01  0.0000000000E+00  0.0000000000E+00
           xangst6    -3.3073575537E-01  0.0000000000E+00  0.0000000000E+00
                       3.3073575537E-01  0.0000000000E+00  0.0000000000E+00
           xangst7    -3.4396518558E-01  0.0000000000E+00  0.0000000000E+00
                       3.4396518558E-01  0.0000000000E+00  0.0000000000E+00
           xangst8    -3.5719461580E-01  0.0000000000E+00  0.0000000000E+00
                       3.5719461580E-01  0.0000000000E+00  0.0000000000E+00
           xangst9    -3.7042404601E-01  0.0000000000E+00  0.0000000000E+00
                       3.7042404601E-01  0.0000000000E+00  0.0000000000E+00
           xangst10   -3.8365347623E-01  0.0000000000E+00  0.0000000000E+00
                       3.8365347623E-01  0.0000000000E+00  0.0000000000E+00
           xangst11   -3.9688290644E-01  0.0000000000E+00  0.0000000000E+00
                       3.9688290644E-01  0.0000000000E+00  0.0000000000E+00
           xangst12   -4.1011233666E-01  0.0000000000E+00  0.0000000000E+00
                       4.1011233666E-01  0.0000000000E+00  0.0000000000E+00
           xangst13   -4.2334176687E-01  0.0000000000E+00  0.0000000000E+00
                       4.2334176687E-01  0.0000000000E+00  0.0000000000E+00
           xangst14   -4.3657119709E-01  0.0000000000E+00  0.0000000000E+00
                       4.3657119709E-01  0.0000000000E+00  0.0000000000E+00
           xangst15   -4.4980062730E-01  0.0000000000E+00  0.0000000000E+00
                       4.4980062730E-01  0.0000000000E+00  0.0000000000E+00
           xangst16   -4.6303005752E-01  0.0000000000E+00  0.0000000000E+00
                       4.6303005752E-01  0.0000000000E+00  0.0000000000E+00
           xangst17   -4.7625948773E-01  0.0000000000E+00  0.0000000000E+00
                       4.7625948773E-01  0.0000000000E+00  0.0000000000E+00
           xangst18   -4.8948891795E-01  0.0000000000E+00  0.0000000000E+00
                       4.8948891795E-01  0.0000000000E+00  0.0000000000E+00
           xangst19   -5.0271834816E-01  0.0000000000E+00  0.0000000000E+00
                       5.0271834816E-01  0.0000000000E+00  0.0000000000E+00
           xangst20   -5.1594777838E-01  0.0000000000E+00  0.0000000000E+00
                       5.1594777838E-01  0.0000000000E+00  0.0000000000E+00
           xangst21   -5.2917720859E-01  0.0000000000E+00  0.0000000000E+00
                       5.2917720859E-01  0.0000000000E+00  0.0000000000E+00
            xcart1    -5.0000000000E-01  0.0000000000E+00  0.0000000000E+00
                       5.0000000000E-01  0.0000000000E+00  0.0000000000E+00
            xcart2    -5.2500000000E-01  0.0000000000E+00  0.0000000000E+00
                       5.2500000000E-01  0.0000000000E+00  0.0000000000E+00
            xcart3    -5.5000000000E-01  0.0000000000E+00  0.0000000000E+00
                       5.5000000000E-01  0.0000000000E+00  0.0000000000E+00
            xcart4    -5.7500000000E-01  0.0000000000E+00  0.0000000000E+00
                       5.7500000000E-01  0.0000000000E+00  0.0000000000E+00
            xcart5    -6.0000000000E-01  0.0000000000E+00  0.0000000000E+00
                       6.0000000000E-01  0.0000000000E+00  0.0000000000E+00
            xcart6    -6.2500000000E-01  0.0000000000E+00  0.0000000000E+00
                       6.2500000000E-01  0.0000000000E+00  0.0000000000E+00
            xcart7    -6.5000000000E-01  0.0000000000E+00  0.0000000000E+00
                       6.5000000000E-01  0.0000000000E+00  0.0000000000E+00
            xcart8    -6.7500000000E-01  0.0000000000E+00  0.0000000000E+00
                       6.7500000000E-01  0.0000000000E+00  0.0000000000E+00
            xcart9    -7.0000000000E-01  0.0000000000E+00  0.0000000000E+00
                       7.0000000000E-01  0.0000000000E+00  0.0000000000E+00
            xcart10   -7.2500000000E-01  0.0000000000E+00  0.0000000000E+00
                       7.2500000000E-01  0.0000000000E+00  0.0000000000E+00
            xcart11   -7.5000000000E-01  0.0000000000E+00  0.0000000000E+00
                       7.5000000000E-01  0.0000000000E+00  0.0000000000E+00
            xcart12   -7.7500000000E-01  0.0000000000E+00  0.0000000000E+00
                       7.7500000000E-01  0.0000000000E+00  0.0000000000E+00
            xcart13   -8.0000000000E-01  0.0000000000E+00  0.0000000000E+00
                       8.0000000000E-01  0.0000000000E+00  0.0000000000E+00
            xcart14   -8.2500000000E-01  0.0000000000E+00  0.0000000000E+00
                       8.2500000000E-01  0.0000000000E+00  0.0000000000E+00
            xcart15   -8.5000000000E-01  0.0000000000E+00  0.0000000000E+00
                       8.5000000000E-01  0.0000000000E+00  0.0000000000E+00
            xcart16   -8.7500000000E-01  0.0000000000E+00  0.0000000000E+00
                       8.7500000000E-01  0.0000000000E+00  0.0000000000E+00
            xcart17   -9.0000000000E-01  0.0000000000E+00  0.0000000000E+00
                       9.0000000000E-01  0.0000000000E+00  0.0000000000E+00
            xcart18   -9.2500000000E-01  0.0000000000E+00  0.0000000000E+00
                       9.2500000000E-01  0.0000000000E+00  0.0000000000E+00
            xcart19   -9.5000000000E-01  0.0000000000E+00  0.0000000000E+00
                       9.5000000000E-01  0.0000000000E+00  0.0000000000E+00
            xcart20   -9.7500000000E-01  0.0000000000E+00  0.0000000000E+00
                       9.7500000000E-01  0.0000000000E+00  0.0000000000E+00
            xcart21   -1.0000000000E+00  0.0000000000E+00  0.0000000000E+00
                       1.0000000000E+00  0.0000000000E+00  0.0000000000E+00
             xred1    -5.0000000000E-02  0.0000000000E+00  0.0000000000E+00
                       5.0000000000E-02  0.0000000000E+00  0.0000000000E+00
             xred2    -5.2500000000E-02  0.0000000000E+00  0.0000000000E+00
                       5.2500000000E-02  0.0000000000E+00  0.0000000000E+00
             xred3    -5.5000000000E-02  0.0000000000E+00  0.0000000000E+00
                       5.5000000000E-02  0.0000000000E+00  0.0000000000E+00
             xred4    -5.7500000000E-02  0.0000000000E+00  0.0000000000E+00
                       5.7500000000E-02  0.0000000000E+00  0.0000000000E+00
             xred5    -6.0000000000E-02  0.0000000000E+00  0.0000000000E+00
                       6.0000000000E-02  0.0000000000E+00  0.0000000000E+00
             xred6    -6.2500000000E-02  0.0000000000E+00  0.0000000000E+00
                       6.2500000000E-02  0.0000000000E+00  0.0000000000E+00
             xred7    -6.5000000000E-02  0.0000000000E+00  0.0000000000E+00
                       6.5000000000E-02  0.0000000000E+00  0.0000000000E+00
             xred8    -6.7500000000E-02  0.0000000000E+00  0.0000000000E+00
                       6.7500000000E-02  0.0000000000E+00  0.0000000000E+00
             xred9    -7.0000000000E-02  0.0000000000E+00  0.0000000000E+00
                       7.0000000000E-02  0.0000000000E+00  0.0000000000E+00
             xred10   -7.2500000000E-02  0.0000000000E+00  0.0000000000E+00
                       7.2500000000E-02  0.0000000000E+00  0.0000000000E+00
             xred11   -7.5000000000E-02  0.0000000000E+00  0.0000000000E+00
                       7.5000000000E-02  0.0000000000E+00  0.0000000000E+00
             xred12   -7.7500000000E-02  0.0000000000E+00  0.0000000000E+00
                       7.7500000000E-02  0.0000000000E+00  0.0000000000E+00
             xred13   -8.0000000000E-02  0.0000000000E+00  0.0000000000E+00
                       8.0000000000E-02  0.0000000000E+00  0.0000000000E+00
             xred14   -8.2500000000E-02  0.0000000000E+00  0.0000000000E+00
                       8.2500000000E-02  0.0000000000E+00  0.0000000000E+00
             xred15   -8.5000000000E-02  0.0000000000E+00  0.0000000000E+00
                       8.5000000000E-02  0.0000000000E+00  0.0000000000E+00
             xred16   -8.7500000000E-02  0.0000000000E+00  0.0000000000E+00
                       8.7500000000E-02  0.0000000000E+00  0.0000000000E+00
             xred17   -9.0000000000E-02  0.0000000000E+00  0.0000000000E+00
                       9.0000000000E-02  0.0000000000E+00  0.0000000000E+00
             xred18   -9.2500000000E-02  0.0000000000E+00  0.0000000000E+00
                       9.2500000000E-02  0.0000000000E+00  0.0000000000E+00
             xred19   -9.5000000000E-02  0.0000000000E+00  0.0000000000E+00
                       9.5000000000E-02  0.0000000000E+00  0.0000000000E+00
             xred20   -9.7500000000E-02  0.0000000000E+00  0.0000000000E+00
                       9.7500000000E-02  0.0000000000E+00  0.0000000000E+00
             xred21   -1.0000000000E-01  0.0000000000E+00  0.0000000000E+00
                       1.0000000000E-01  0.0000000000E+00  0.0000000000E+00
            znucl        1.00000
 
================================================================================


- Timing analysis has been suppressed with timopt=0



================================================================================

 Suggested references for the acknowledgment of ABINIT usage.

 The users of ABINIT have little formal obligations with respect to the ABINIT group
 (those specified in the GNU General Public License, http://www.gnu.org/copyleft/gpl.txt).
 However, it is common practice in the scientific literature,
 to acknowledge the efforts of people that have made the research possible.
 In this spirit, please find below suggested citations of work written by ABINIT developers,
 corresponding to implementations inside of ABINIT that you have used in the present run.
 Note also that it will be of great value to readers of publications presenting these results,
 to read papers enabling them to understand the theoretical formalism and details
 of the ABINIT implementation.
 For information on why they are suggested, see also https://docs.abinit.org/theory/acknowledgments.
-
- [1] The Abinit project: Impact, environment and recent developments.
- Computer Phys. Comm. 248, 107042 (2020).
- X.Gonze, B. Amadon, G. Antonius, F.Arnardi, L.Baguet, J.-M.Beuken,
- J.Bieder, F.Bottin, J.Bouchet, E.Bousquet, N.Brouwer, F.Bruneval,
- G.Brunin, T.Cavignac, J.-B. Charraud, Wei Chen, M.Cote, S.Cottenier,
- J.Denier, G.Geneste, Ph.Ghosez, M.Giantomassi, Y.Gillet, O.Gingras,
- D.R.Hamann, G.Hautier, Xu He, N.Helbig, N.Holzwarth, Y.Jia, F.Jollet,
- W.Lafargue-Dit-Hauret, K.Lejaeghere, M.A.L.Marques, A.Martin, C.Martins,
- H.P.C. Miranda, F.Naccarato, K. Persson, G.Petretto, V.Planes, Y.Pouillon,
- S.Prokhorenko, F.Ricci, G.-M.Rignanese, A.H.Romero, M.M.Schmitt, M.Torrent,
- M.J.van Setten, B.Van Troeye, M.J.Verstraete, G.Zerah and J.W.Zwanzig
- Comment: the fifth generic paper describing the ABINIT project.
- Note that a version of this paper, that is not formatted for Computer Phys. Comm. 
- is available at https://www.abinit.org/sites/default/files/ABINIT20.pdf .
- The licence allows the authors to put it on the Web.
- DOI and bibtex: see https://docs.abinit.org/theory/bibliography/#gonze2020
-
- [2] Optimized norm-conserving Vanderbilt pseudopotentials.
- D.R. Hamann, Phys. Rev. B 88, 085117 (2013).
- Comment: Some pseudopotential generated using the ONCVPSP code were used.
- DOI and bibtex: see https://docs.abinit.org/theory/bibliography/#hamann2013
-
- [3] ABINIT: Overview, and focus on selected capabilities
- J. Chem. Phys. 152, 124102 (2020).
- A. Romero, D.C. Allan, B. Amadon, G. Antonius, T. Applencourt, L.Baguet,
- J.Bieder, F.Bottin, J.Bouchet, E.Bousquet, F.Bruneval,
- G.Brunin, D.Caliste, M.Cote,
- J.Denier, C. Dreyer, Ph.Ghosez, M.Giantomassi, Y.Gillet, O.Gingras,
- D.R.Hamann, G.Hautier, F.Jollet, G. Jomard,
- A.Martin, 
- H.P.C. Miranda, F.Naccarato, G.Petretto, N.A. Pike, V.Planes,
- S.Prokhorenko, T. Rangel, F.Ricci, G.-M.Rignanese, M.Royo, M.Stengel, M.Torrent,
- M.J.van Setten, B.Van Troeye, M.J.Verstraete, J.Wiktor, J.W.Zwanziger, and X.Gonze.
- Comment: a global overview of ABINIT, with focus on selected capabilities .
- Note that a version of this paper, that is not formatted for J. Chem. Phys 
- is available at https://www.abinit.org/sites/default/files/ABINIT20_JPC.pdf .
- The licence allows the authors to put it on the Web.
- DOI and bibtex: see https://docs.abinit.org/theory/bibliography/#romero2020
-
- [4] Recent developments in the ABINIT software package.
- Computer Phys. Comm. 205, 106 (2016).
- X.Gonze, F.Jollet, F.Abreu Araujo, D.Adams, B.Amadon, T.Applencourt,
- C.Audouze, J.-M.Beuken, J.Bieder, A.Bokhanchuk, E.Bousquet, F.Bruneval
- D.Caliste, M.Cote, F.Dahm, F.Da Pieve, M.Delaveau, M.Di Gennaro,
- B.Dorado, C.Espejo, G.Geneste, L.Genovese, A.Gerossier, M.Giantomassi,
- Y.Gillet, D.R.Hamann, L.He, G.Jomard, J.Laflamme Janssen, S.Le Roux,
- A.Levitt, A.Lherbier, F.Liu, I.Lukacevic, A.Martin, C.Martins,
- M.J.T.Oliveira, S.Ponce, Y.Pouillon, T.Rangel, G.-M.Rignanese,
- A.H.Romero, B.Rousseau, O.Rubel, A.A.Shukri, M.Stankovski, M.Torrent,
- M.J.Van Setten, B.Van Troeye, M.J.Verstraete, D.Waroquier, J.Wiktor,
- B.Xu, A.Zhou, J.W.Zwanziger.
- Comment: the fourth generic paper describing the ABINIT project.
- Note that a version of this paper, that is not formatted for Computer Phys. Comm. 
- is available at https://www.abinit.org/sites/default/files/ABINIT16.pdf .
- The licence allows the authors to put it on the Web.
- DOI and bibtex: see https://docs.abinit.org/theory/bibliography/#gonze2016
-
- And optionally:
-
- [5] ABINIT: First-principles approach of materials and nanosystem properties.
- Computer Phys. Comm. 180, 2582-2615 (2009).
- X. Gonze, B. Amadon, P.-M. Anglade, J.-M. Beuken, F. Bottin, P. Boulanger, F. Bruneval,
- D. Caliste, R. Caracas, M. Cote, T. Deutsch, L. Genovese, Ph. Ghosez, M. Giantomassi
- S. Goedecker, D.R. Hamann, P. Hermet, F. Jollet, G. Jomard, S. Leroux, M. Mancini, S. Mazevet,
- M.J.T. Oliveira, G. Onida, Y. Pouillon, T. Rangel, G.-M. Rignanese, D. Sangalli, R. Shaltaf,
- M. Torrent, M.J. Verstraete, G. Zerah, J.W. Zwanziger
- Comment: the third generic paper describing the ABINIT project.
- Note that a version of this paper, that is not formatted for Computer Phys. Comm. 
- is available at https://www.abinit.org/sites/default/files/ABINIT_CPC_v10.pdf .
- The licence allows the authors to put it on the Web.
- DOI and bibtex: see https://docs.abinit.org/theory/bibliography/#gonze2009
-
- Proc.   0 individual time (sec): cpu=          6.0  wall=         22.7
 
================================================================================
 
 Calculation completed.
.Delivered 117 WARNINGs and  47 COMMENTs to log file.
+Overall time at end (sec) : cpu=          6.0  wall=         22.7
